# vtk DataFile Version 3.0
EmbeddedSignedDistanceField
ASCII

DATASET UNSTRUCTURED_GRID
POINTS 1880 double
 -0.00774930  -0.04396580   0.03335830
 -0.00774930  -0.04437330   0.03523730
 -0.00902800  -0.04396580   0.03523730
 -0.00774930  -0.04464330   0.04018340
 -0.01000410  -0.04396580   0.04018340
 -0.00774930  -0.04481170   0.04512940
 -0.01092190  -0.04396580   0.04512940
 -0.00774930  -0.04497470   0.05007540
 -0.01148600  -0.04396580   0.05007540
 -0.00774930  -0.04408780   0.05502150
 -0.00813410  -0.04396580   0.05502150
 -0.00774930  -0.04396580   0.05549030
 -0.00259690  -0.04396580   0.02951210
 -0.00259690  -0.04413110   0.03029130
 -0.00364580  -0.04396580   0.03029130
 -0.00259690  -0.04512870   0.03523730
 -0.00259690  -0.04517140   0.04018340
 -0.00259690  -0.04520190   0.04512940
 -0.00259690  -0.04529590   0.05007540
 -0.00259690  -0.04451430   0.05502150
 -0.00259690  -0.04396580   0.05703900
  0.00255550  -0.04396580   0.03002480
  0.00255550  -0.04402160   0.03029130
  0.00255550  -0.04505740   0.03523730
  0.00255550  -0.04522160   0.04018340
  0.00255550  -0.04532080   0.04512940
  0.00255550  -0.04541690   0.05007540
  0.00255550  -0.04478250   0.05502150
  0.00255550  -0.04396580   0.05768700
  0.00297010  -0.04396580   0.03029130
  0.00770790  -0.04396580   0.03384560
  0.00770790  -0.04422230   0.03523730
  0.00770790  -0.04457540   0.04018340
  0.00770790  -0.04457290   0.04512940
  0.00770790  -0.04456100   0.05007540
  0.00770790  -0.04396580   0.05493370
  0.00763900  -0.04396580   0.05502150
  0.00866730  -0.04396580   0.03523730
  0.01008970  -0.04396580   0.04018340
  0.01066230  -0.04396580   0.04512940
  0.01101220  -0.04396580   0.05007540
 -0.01805410  -0.03881570   0.02722800
 -0.01805410  -0.03975020   0.03029130
 -0.02076380  -0.03881570   0.03029130
 -0.01805410  -0.04020680   0.03523730
 -0.02134410  -0.03881570   0.03523730
 -0.01805410  -0.04051190   0.04018340
 -0.02168060  -0.03881570   0.04018340
 -0.01805410  -0.04090040   0.04512940
 -0.02228730  -0.03881570   0.04512940
 -0.01805410  -0.04082950   0.05007540
 -0.02121810  -0.03881570   0.05007540
 -0.01805410  -0.03986240   0.05502150
 -0.01970770  -0.03881570   0.05502150
 -0.01805410  -0.03881570   0.05991660
 -0.01290170  -0.03881570   0.02100050
 -0.01290170  -0.04022360   0.02534530
 -0.01652980  -0.03881570   0.02534530
 -0.01290170  -0.04169150   0.03029130
 -0.01290170  -0.04267370   0.03523730
 -0.01290170  -0.04305190   0.04018340
 -0.01290170  -0.04342310   0.04512940
 -0.01290170  -0.04356640   0.05007540
 -0.01290170  -0.04240850   0.05502150
 -0.01803340  -0.03881570   0.05996750
 -0.01290170  -0.04121640   0.05996750
 -0.01290170  -0.04000650   0.06491350
 -0.01569030  -0.03881570   0.06491350
 -0.01290170  -0.03881570   0.06728170
 -0.00774930  -0.03881570   0.01658830
 -0.00774930  -0.04059770   0.02039920
 -0.01240640  -0.03881570   0.02039920
 -0.00774930  -0.04198970   0.02534530
 -0.00774930  -0.04328870   0.03029130
 -0.00774930  -0.04279500   0.05996750
 -0.00774930  -0.04147600   0.06491350
 -0.00893410  -0.03881570   0.06985960
 -0.00774930  -0.03925540   0.06985960
 -0.00774930  -0.03881570   0.07042620
 -0.00259690  -0.03881570   0.01314740
 -0.00259690  -0.03989460   0.01545320
 -0.00603020  -0.03881570   0.01545320
 -0.00259690  -0.04199310   0.02039920
 -0.00259690  -0.04308190   0.02534530
 -0.00259690  -0.04316860   0.05996750
 -0.00259690  -0.04178950   0.06491350
 -0.00259690  -0.03991140   0.06985960
 -0.00259690  -0.03881570   0.07131050
  0.00255550  -0.03881570   0.01315240
  0.00255550  -0.03979860   0.01545320
  0.00255550  -0.04187840   0.02039920
  0.00255550  -0.04298560   0.02534530
  0.00255550  -0.04325780   0.05996750
  0.00255550  -0.04171980   0.06491350
  0.00255550  -0.03999120   0.06985960
  0.00255550  -0.03881570   0.07130260
  0.00770790  -0.03881570   0.01420640
  0.00770790  -0.03933590   0.01545320
  0.00770790  -0.04135200   0.02039920
  0.00770790  -0.04239600   0.02534530
  0.00770790  -0.04330940   0.03029130
  0.00770790  -0.04395460   0.05502150
  0.00770790  -0.04241650   0.05996750
  0.00770790  -0.04095640   0.06491350
  0.00770790  -0.03944890   0.06985960
  0.00770790  -0.03881570   0.07071190
  0.00949580  -0.03881570   0.01545320
  0.01286030  -0.03881570   0.01779950
  0.01286030  -0.03987810   0.02039920
  0.01286030  -0.04099230   0.02534530
  0.01286030  -0.04192580   0.03029130
  0.01286030  -0.04284260   0.03523730
  0.01286030  -0.04324510   0.04018340
  0.01286030  -0.04350590   0.04512940
  0.01286030  -0.04363290   0.05007540
  0.01286030  -0.04311330   0.05502150
  0.01286030  -0.04165190   0.05996750
  0.01286030  -0.04024820   0.06491350
  0.01286030  -0.03882800   0.06985960
  0.01286030  -0.03881570   0.06987840
  0.01642390  -0.03881570   0.02039920
  0.01801270  -0.03881570   0.02260080
  0.01801270  -0.03940440   0.02534530
  0.01801270  -0.04022780   0.03029130
  0.01801270  -0.04109900   0.03523730
  0.01801270  -0.04153960   0.04018340
  0.01801270  -0.04180210   0.04512940
  0.01801270  -0.04206640   0.05007540
  0.01801270  -0.04169000   0.05502150
  0.01801270  -0.04013560   0.05996750
  0.01801270  -0.03881570   0.06432810
  0.01751680  -0.03881570   0.06491350
  0.01290400  -0.03881570   0.06985960
  0.01894290  -0.03881570   0.02534530
  0.02016130  -0.03881570   0.03029130
  0.02136370  -0.03881570   0.03523730
  0.02202010  -0.03881570   0.04018340
  0.02242140  -0.03881570   0.04512940
  0.02278090  -0.03881570   0.05007540
  0.02205260  -0.03881570   0.05502150
  0.01990560  -0.03881570   0.05996750
 -0.02835890  -0.03366550   0.02829290
 -0.02835890  -0.03393450   0.03029130
 -0.02866400  -0.03366550   0.03029130
 -0.02835890  -0.03427060   0.03523730
 -0.02904160  -0.03366550   0.03523730
 -0.02835890  -0.03462970   0.04018340
 -0.02944260  -0.03366550   0.04018340
 -0.02835890  -0.03458750   0.04512940
 -0.02925390  -0.03366550   0.04512940
 -0.02835890  -0.03368450   0.05007540
 -0.02837750  -0.03366550   0.05007540
 -0.02835890  -0.03366550   0.05018350
 -0.02320650  -0.03366550   0.01787050
 -0.02320650  -0.03469050   0.02039920
 -0.02475190  -0.03366550   0.02039920
 -0.02320650  -0.03664900   0.02534530
 -0.02779790  -0.03366550   0.02534530
 -0.02320650  -0.03790350   0.03029130
 -0.02320650  -0.03802020   0.03523730
 -0.02320650  -0.03812640   0.04018340
 -0.02320650  -0.03837240   0.04512940
 -0.02320650  -0.03761940   0.05007540
 -0.02739770  -0.03366550   0.05502150
 -0.02320650  -0.03669510   0.05502150
 -0.02320650  -0.03572600   0.05996750
 -0.02627420  -0.03366550   0.05996750
 -0.02320650  -0.03366550   0.06419790
 -0.01805410  -0.03366550   0.01295560
 -0.01805410  -0.03517060   0.01545320
 -0.02133900  -0.03366550   0.01545320
 -0.01805410  -0.03674730   0.02039920
 -0.01805410  -0.03824800   0.02534530
 -0.01805410  -0.03880480   0.05996750
 -0.02265900  -0.03366550   0.06491350
 -0.01805410  -0.03742960   0.06491350
 -0.01805410  -0.03372110   0.06985960
 -0.01811510  -0.03366550   0.06985960
 -0.01805410  -0.03366550   0.06992990
 -0.01290170  -0.03366550   0.01147370
 -0.01290170  -0.03623270   0.01545320
 -0.01290170  -0.03861230   0.02039920
 -0.01290170  -0.03714550   0.06985960
 -0.01290170  -0.03366550   0.07431270
 -0.00774930  -0.03366550   0.00728760
 -0.00774930  -0.03557270   0.01050720
 -0.01168900  -0.03366550   0.01050720
 -0.00774930  -0.03824290   0.01545320
 -0.01194070  -0.03366550   0.07480560
 -0.00774930  -0.03522870   0.07480560
 -0.00774930  -0.03366550   0.07671640
 -0.00259690  -0.03366550   0.00455070
 -0.00259690  -0.03459730   0.00556110
 -0.00490850  -0.03366550   0.00556110
 -0.00259690  -0.03750510   0.01050720
 -0.00259690  -0.03584460   0.07480560
 -0.00259690  -0.03366550   0.07729250
  0.00255550  -0.03366550   0.00385610
  0.00255550  -0.03518020   0.00556110
  0.00255550  -0.03769570   0.01050720
  0.00255550  -0.03521940   0.07480560
  0.00255550  -0.03366550   0.07638740
  0.00770790  -0.03366550   0.00409570
  0.00770790  -0.03486630   0.00556110
  0.00770790  -0.03727190   0.01050720
  0.00770790  -0.03456910   0.07480560
  0.00770790  -0.03366550   0.07561890
  0.01202320  -0.03366550   0.00556110
  0.01286030  -0.03366550   0.00598760
  0.01286030  -0.03588330   0.01050720
  0.01286030  -0.03784730   0.01545320
  0.01286030  -0.03419310   0.07480560
  0.01286030  -0.03366550   0.07527940
  0.01801270  -0.03366550   0.00913860
  0.01801270  -0.03430900   0.01050720
  0.01801270  -0.03614450   0.01545320
  0.01801270  -0.03822150   0.02039920
  0.01801270  -0.03862950   0.06491350
  0.01801270  -0.03682200   0.06985960
  0.01801270  -0.03366550   0.07291130
  0.01392540  -0.03366550   0.07480560
  0.01882210  -0.03366550   0.01050720
  0.02083490  -0.03366550   0.01545320
  0.02316510  -0.03366550   0.01998180
  0.02316510  -0.03387940   0.02039920
  0.02316510  -0.03557850   0.02534530
  0.02316510  -0.03665820   0.03029130
  0.02316510  -0.03752190   0.03523730
  0.02316510  -0.03799820   0.04018340
  0.02316510  -0.03829630   0.04512940
  0.02316510  -0.03854740   0.05007540
  0.02316510  -0.03800060   0.05502150
  0.02316510  -0.03642750   0.05996750
  0.02316510  -0.03470340   0.06491350
  0.02316510  -0.03366550   0.06754200
  0.02192640  -0.03366550   0.06985960
  0.02341230  -0.03366550   0.02039920
  0.02545750  -0.03366550   0.02534530
  0.02700650  -0.03366550   0.03029130
  0.02831750  -0.03366550   0.03458310
  0.02831750  -0.03382120   0.03523730
  0.02831750  -0.03428010   0.04018340
  0.02831750  -0.03463280   0.04512940
  0.02831750  -0.03494960   0.05007540
  0.02831750  -0.03422540   0.05502150
  0.02831750  -0.03366550   0.05661180
  0.02677380  -0.03366550   0.05996750
  0.02446410  -0.03366550   0.06491350
  0.02849380  -0.03366550   0.03523730
  0.02903880  -0.03366550   0.04018340
  0.02950940  -0.03366550   0.04512940
  0.02999880  -0.03366550   0.05007540
  0.02903510  -0.03366550   0.05502150
[...]
POINT_DATA 1880
SCALARS SignedDistance(meters) double 1
LOOKUP_TABLE default
          0.00489423
          0.00499995
          0.00500003
          0.00499996
          0.00496444
          0.00499946
          0.00497630
          0.00499374
          0.00497668
          0.00499871
          0.00498855
          0.00499588
          0.00500002
          0.00500004
          0.00481577
          0.00499836
          0.00500005
          0.00500004
          0.00499999
          0.00500002
          0.00499963
          0.00500002
          0.00499999
          0.00499105
          0.00499998
          0.00500002
          0.00499997
          0.00499608
          0.00499893
          0.00495185
          0.00500003
          0.00499954
          0.00499544
          0.00500004
          0.00499998
          0.00498486
          0.00500001
          0.00500002
          0.00499931
          0.00492633
          0.00500001
          0.00500005
          0.00501014
          0.00489425
          0.00500411
          0.00502624
          0.00500381
          0.00501342
          0.00499997
          0.00500554
          0.00499997
          0.00504763
          0.00498447
          0.00507285
          0.00499965
          0.00499335
          0.00499994
          0.00517807
          0.00499411
          0.00494798
          0.00497365
          0.00499517
          0.00499271
          0.00500003
          0.00499815
          0.00499994
          0.00499998
          0.00474804
          0.00470220
          0.00496588
          0.00500004
          0.00496667
          0.00498957
          0.00499997
          0.00498731
          0.00499998
          0.00476439
          0.00497438
          0.00500335
          0.00499929
          0.00499078
          0.00505700
          0.00496538
          0.00499995
          0.00500002
          0.00500003
          0.00489944
          0.00500002
          0.00501436
          0.00499997
          0.00494648
          0.00500003
          0.00500001
          0.00500001
          0.00491372
          0.00497985
          0.00500003
          0.00499994
          0.00495930
          0.00500000
          0.00500001
          0.00500005
          0.00499996
          0.00499996
          0.00497059
          0.00487587
          0.00500004
          0.00500004
          0.00498000
          0.00500002
          0.00499774
          0.00500002
          0.00499998
          0.00500005
          0.00500002
          0.00500000
          0.00499997
          0.00499996
          0.00499973
          0.00499482
          0.00495743
          0.00488436
          0.00496531
          0.00491049
          0.00490478
          0.00491640
          0.00492541
          0.00493599
          0.00493309
          0.00494769
          0.00500005
          0.00486163
          0.00499360
          0.00499083
          0.00500005
          0.00500003
          0.00499297
          0.00500002
          0.00500005
          0.00500005
          0.00500005
          0.00489779
          0.00500001
          0.00499996
          0.00499996
          0.00500168
          0.00499997
          0.00499996
          0.00499237
          0.00500001
          0.00499957
          0.00499998
          0.00499996
          0.00500768
          0.00498455
          0.00500090
          0.00490885
          0.00499994
          0.00492686
          0.00496682
          0.00499700
          0.00499082
          0.00500001
          0.00490632
          0.00498908
          0.00500000
          0.00474384
          0.00492790
          0.00490284
          0.00497498
          0.00480275
          0.00500005
          0.00500003
          0.00499993
          0.00501240
          0.00486671
          0.00499853
          0.00500466
          0.00499853
          0.00499999
          0.00497060
          0.00500000
          0.00500005
          0.00500915
          0.00485163
          0.00499997
          0.00492786
          0.00499996
          0.00486808
          0.00500000
          0.00499998
          0.00499956
          0.00489106
          0.00499927
          0.00497037
          0.00499998
          0.00497149
          0.00500199
          0.00484138
          0.00499998
          0.00500003
          0.00499998
          0.00496440
          0.00491454
          0.00499996
          0.00500003
          0.00500140
          0.00500002
          0.00491977
          0.00499998
          0.00500961
          0.00500001
          0.00500002
          0.00488309
          0.00496146
          0.00484817
          0.00493366
          0.00500004
          0.00488555
          0.00499900
          0.00471524
          0.00493273
          0.00499998
          0.00500696
          0.00499919
          0.00499759
          0.00500001
          0.00500006
          0.00500005
          0.00499995
          0.00500004
          0.00500006
          0.00500006
          0.00499476
          0.00495973
          0.00497217
          0.00500001
          0.00499997
          0.00499706
          0.00497612
          0.00500002
          0.00500000
          0.00500005
          0.00500006
          0.00500000
          0.00497721
          0.00499478
          0.00499998
          0.00497664
          0.00492383
          0.00491326
          0.00491368
          0.00497334
          0.00490452
          0.00498615
          0.00499993
          0.00494955
          0.00499996
          0.00489147
          0.00498530
          0.00497605
          0.00497884
          0.00499314
          0.00499160
          0.00493286
          0.00499809
          0.00497343
          0.00499164
          0.00500000
          0.00498722
          0.00500000
          0.00499998
          0.00499998
          0.00490541
          0.00500000
          0.00498406
          0.00493605
          0.00499982
          0.00469201
          0.00499999
          0.00499930
          0.00499980
          0.00499808
          0.00493492
          0.00497443
          0.00497357
          0.00497174
          0.00513048
          0.00493955
          0.00488779
          0.00498377
          0.00495472
          0.00488302
          0.00499052
          0.00499995
          0.00497437
          0.00499996
          0.00489988
          0.00468977
          0.00468310
          0.00499999
          0.00498528
          0.00499962
          0.00490551
          0.00469768
          0.00499997
          0.00491573
          0.00499999
          0.00497707
          0.00491269
          0.00492706
          0.00499999
          0.00499999
          0.00493915
          0.00496024
          0.00500004
          0.00500002
          0.00499893
          0.00499996
          0.00479615
          0.00498807
          0.00479296
          0.00500004
          0.00500001
          0.00498957
          0.00500232
          0.00494167
          0.00496295
          0.00504428
          0.00488229
          0.00500000
          0.00500001
          0.00499881
          0.00482293
          0.00499917
          0.00498826
          0.00472867
          0.00482093
          0.00500002
          0.00500003
          0.00482089
          0.00498585
          0.00500247
          0.00500002
          0.00508715
          0.00498466
          0.00500000
          0.00499937
          0.00499995
          0.00499063
          0.00499929
          0.00499996
          0.00488430
          0.00480930
          0.00500003
          0.00499385
          0.00494989
          0.00499998
          0.00497823
          0.00499999
          0.00499999
          0.00500004
          0.00499998
          0.00499999
          0.00500996
          0.00496336
          0.00499997
          0.00487197
          0.00499892
          0.00495501
          0.00499570
          0.00497772
          0.00482717
          0.00499591
          0.00499998
          0.00499999
          0.00500002
          0.00499735
          0.00499998
          0.00498399
          0.00492143
          0.00499894
          0.00490181
          0.00500006
          0.00497814
          0.00492490
          0.00499997
          0.00499846
          0.00510343
          0.00499998
          0.00491482
          0.00500396
          0.00499999
          0.00492370
          0.00488775
          0.00507028
          0.00500002
          0.00499999
          0.00500002
          0.00500004
          0.00499999
          0.00499999
          0.00498123
          0.00499994
          0.00493925
          0.00488095
          0.00495874
          0.00501119
          0.00493458
          0.00498681
          0.00500023
          0.00499777
          0.00504567
          0.00500000
          0.00500000
          0.00502329
          0.00499264
          0.00494128
          0.00498483
          0.00498039
          0.00500001
          0.00502510
          0.00500012
          0.00501164
          0.00499998
          0.00499990
          0.00499911
          0.00500251
          0.00499997
          0.00499997
          0.00500058
          0.00475697
          0.00497886
          0.00495754
          0.00497391
          0.00499999
          0.00500379
          0.00499958
          0.00500007
          0.00500010
          0.00500003
          0.00494236
          0.00491248
          0.00500001
          0.00476836
          0.00499997
          0.00496367
          0.00498991
          0.00495005
          0.00500000
          0.00497476
          0.00498414
          0.00500988
          0.00492990
          0.00499998
          0.00499975
          0.00500000
          0.00499999
          0.00491780
          0.00500005
          0.00497753
          0.00495784
          0.00496987
          0.00500002
          0.00498351
          0.00499240
          0.00497215
          0.00491806
          0.00497989
          0.00498677
          0.00503511
          0.00499997
          0.00504465
          0.00500000
          0.00504034
          0.00495819
          0.00493632
          0.00491955
          0.00517033
          0.00498823
          0.00501136
          0.00483475
          0.00497910
          0.00498853
          0.00499864
          0.00497729
          0.00499514
          0.00499685
          0.00499997
          0.00499504
          0.00490844
          0.00494077
          0.00499997
          0.00499377
          0.00499726
          0.00500353
          0.00499999
          0.00481786
          0.00499885
          0.00500001
          0.00500001
          0.00500002
          0.00499935
          0.00491992
          0.00494733
          0.00483940
          0.00500007
          0.00500498
          0.00500081
          0.00501358
          0.00476253
          0.00497391
          0.00489301
          0.00500000
          0.00499587
          0.00499944
          0.00500000
          0.00495867
          0.00499998
          0.00500007
          0.00499999
          0.00499217
          0.00500665
          0.00500002
          0.00499931
          0.00488153
          0.00493698
          0.00487341
          0.00498373
          0.00500019
          0.00499998
          0.00500003
          0.00496017
          0.00500000
          0.00499840
          0.00498008
          0.00499445
          0.00498853
          0.00499357
          0.00499999
          0.00499996
          0.00500003
          0.00499996
          0.00499996
          0.00500002
          0.00499998
          0.00500001
          0.00499995
          0.00499838
          0.00495534
          0.00496450
          0.00499250
          0.00497837
          0.00496868
          0.00493378
          0.00499996
          0.00499996
          0.00500005
          0.00496054
          0.00490572
          0.00499341
          0.00497432
          0.00483850
          0.00499893
          0.00499816
          0.00488453
          0.00486974
          0.00499551
          0.00491705
          0.00500004
          0.00499718
          0.00499997
          0.00497642
          0.00500003
          0.00498782
          0.00500002
          0.00499190
          0.00498173
          0.00500002
          0.00497352
          0.00499468
          0.00450202
          0.00499919
          0.00499638
          0.00471802
          0.00499954
          0.00495404
          0.00499900
          0.00495197
          0.00500005
          0.00499886
          0.00499677
          0.00496527
          0.00500003
          0.00506666
          0.00500000
          0.00497016
          0.00481242
          0.00498683
          0.00496688
          0.00499338
          0.00499997
          0.00496047
          0.00498305
          0.00502014
          0.00499997
          0.00496746
          0.00499997
          0.00495356
          0.00500001
          0.00499156
          0.00499893
          0.00499599
          0.00500279
          0.00499997
          0.00499999
          0.00498144
          0.00499925
          0.00500000
          0.00500002
          0.00499997
          0.00499997
          0.00498910
          0.00499917
          0.00492965
          0.00499604
          0.00499997
          0.00498260
          0.00499998
          0.00499999
          0.00499039
          0.00499996
          0.00499999
          0.00498026
          0.00499679
          0.00480277
          0.00493608
          0.00500002
          0.00500004
          0.00500000
          0.00499078
          0.00499095
          0.00496928
          0.00499616
          0.00491264
          0.00487215
          0.00498624
          0.00500004
          0.00500002
          0.00500002
          0.00500003
          0.00500283
          0.00481944
          0.00499997
          0.00487135
          0.00499806
          0.00496952
          0.00499996
          0.00495100
          0.00502544
          0.00499994
          0.00499999
          0.00499504
          0.00499914
          0.00499997
          0.00478631
          0.00500001
          0.00496740
          0.00500004
          0.00494548
          0.00500003
          0.00497313
          0.00497026
          0.00490062
          0.00500004
          0.00500005
          0.00500002
          0.00497112
          0.00499272
          0.00492410
          0.00496982
          0.00499903
          0.00498702
          0.00497483
          0.00498533
          0.00497592
          0.00499996
          0.00488260
          0.00500001
          0.00499995
          0.00495239
          0.00499998
          0.00500003
          0.00489515
          0.00498779
          0.00493480
          0.00499997
          0.00500002
          0.00497892
          0.00499997
          0.00499928
          0.00492383
          0.00500152
          0.00499958
          0.00499893
          0.00500239
          0.00499166
          0.00500207
          0.00483995
          0.00492183
          0.00500070
          0.00500020
          0.00499996
          0.00500003
          0.00497073
          0.00499999
          0.00499998
          0.00499274
          0.00498114
          0.00499995
          0.00498145
          0.00491494
          0.00498955
          0.00500000
          0.00495263
          0.00486852
          0.00499996
          0.00491138
          0.00500515
          0.00493731
          0.00498385
          0.00495161
          0.00499463
          0.00500004
          0.00494970
          0.00498454
          0.00500001
          0.00514330
          0.00498643
          0.00490048
          0.00503183
          0.00483287
          0.00493655
          0.00499995
          0.00499817
          0.00487855
          0.00499539
          0.00499995
          0.00500000
          0.00499916
          0.00497070
          0.00499927
          0.00500637
          0.00500005
          0.00483450
          0.00496188
          0.00498039
          0.00496252
          0.00500001
          0.00487932
          0.00499998
          0.00499694
          0.00499998
          0.00500003
          0.00499836
          0.00499872
          0.00499230
          0.00499813
          0.00499862
          0.00500022
          0.00499997
          0.00499727
          0.00499996
          0.00499950
          0.00499997
          0.00491075
          0.00488734
          0.00463846
          0.00499967
          0.00499996
          0.00499998
          0.00499996
          0.00499998
          0.00499961
          0.00478981
          0.00499996
          0.00500000
          0.00499724
          0.00505298
          0.00499963
          0.00496568
          0.00498476
          0.00500005
          0.00500003
          0.00499999
          0.00487285
          0.00496923
          0.00474167
          0.00498820
          0.00499995
          0.00499087
          0.00499009
          0.00483975
          0.00490228
          0.00493694
          0.00499508
          0.00487596
          0.00500002
          0.00480549
          0.00495247
          0.00499189
          0.00496744
          0.00497510
          0.00499998
          0.00478010
          0.00500506
          0.00499996
          0.00499725
          0.00499928
          0.00497239
          0.00499621
          0.00499444
          0.00465045
          0.00500001
          0.00516761
          0.00499955
          0.00500001
          0.00500361
          0.00504183
          0.00500003
          0.00490738
          0.00498134
          0.00501536
          0.00490779
          0.00502296
          0.00499916
          0.00494574
          0.00499998
          0.00499985
          0.00472429
          0.00500001
          0.00499723
          0.00498737
          0.00499993
          0.00500001
          0.00495918
          0.00496177
          0.00499780
          0.00499981
          0.00500001
          0.00500003
          0.00489763
          0.00493766
          0.00500081
          0.00483496
          0.00498331
          0.00494010
          0.00477859
          0.00500002
          0.00499659
          0.00494408
          0.00495302
          0.00492361
          0.00500004
          0.00499942
          0.00499999
          0.00500005
          0.00499997
          0.00484588
          0.00500005
          0.00500060
          0.00499997
          0.00499995
          0.00499616
          0.00500005
          0.00473091
          0.00500000
          0.00500006
          0.00499983
          0.00499998
          0.00500000
          0.00497907
          0.00500005
          0.00500004
          0.00500004
          0.00499177
          0.00500005
          0.00498736
          0.00498102
          0.00499978
          0.00499996
          0.00495895
          0.00499998
          0.00518921
          0.00497590
          0.00499849
          0.00498190
          0.00498969
          0.00466541
          0.00499940
          0.00496396
          0.00500105
          0.00500025
          0.00492891
          0.00500004
          0.00500005
          0.00492317
          0.00496254
          0.00497098
          0.00499998
          0.00545256
          0.00494621
          0.00496967
          0.00499670
          0.00500396
          0.00556946
          0.00493405
          0.00464359
          0.00500000
          0.00510244
          0.00499737
          0.00505740
          0.00500002
          0.00520017
          0.00500270
          0.00491621
          0.00499996
          0.00497819
          0.00500000
          0.00493629
          0.00494759
          0.00488210
          0.00499998
          0.00497002
          0.00483525
          0.00499085
          0.00500002
          0.00475476
          0.00485967
          0.00493612
          0.00509458
          0.00500001
          0.00489338
          0.00500003
          0.00503660
          0.00537877
          0.00500007
          0.00497217