# vtk DataFile Version 3.0
Test pressure on fixed box_diamondcubic with hydroelastic modulus 1e6 Pascals
ASCII

DATASET UNSTRUCTURED_GRID
POINTS 76 double
 -0.06000000  -0.11500000  -0.17500000
 -0.06000000  -0.11500000  -0.08750000
 -0.06000000  -0.11500000   0.00000000
 -0.06000000  -0.11500000   0.08750000
 -0.06000000  -0.11500000   0.17500000
 -0.06000000  -0.03833333  -0.17500000
 -0.06000000  -0.03833333  -0.08750000
 -0.06000000  -0.03833333   0.00000000
 -0.06000000  -0.03833333   0.08750000
 -0.06000000  -0.03833333   0.17500000
 -0.06000000   0.03833333  -0.17500000
 -0.06000000   0.03833333  -0.08750000
 -0.06000000   0.03833333   0.00000000
 -0.06000000   0.03833333   0.08750000
 -0.06000000   0.03833333   0.17500000
 -0.06000000   0.11500000  -0.17500000
 -0.06000000   0.11500000  -0.08750000
 -0.06000000   0.11500000   0.00000000
 -0.06000000   0.11500000   0.08750000
 -0.06000000   0.11500000   0.17500000
  0.00000000  -0.11500000  -0.17500000
  0.00000000  -0.11500000  -0.08750000
  0.00000000  -0.11500000   0.00000000
  0.00000000  -0.11500000   0.08750000
  0.00000000  -0.11500000   0.17500000
  0.00000000  -0.03833333  -0.17500000
  0.00000000  -0.03833333  -0.08750000
  0.00000000  -0.03833333   0.00000000
  0.00000000  -0.03833333   0.08750000
  0.00000000  -0.03833333   0.17500000
  0.00000000   0.03833333  -0.17500000
  0.00000000   0.03833333  -0.08750000
  0.00000000   0.03833333   0.00000000
  0.00000000   0.03833333   0.08750000
  0.00000000   0.03833333   0.17500000
  0.00000000   0.11500000  -0.17500000
  0.00000000   0.11500000  -0.08750000
  0.00000000   0.11500000   0.00000000
  0.00000000   0.11500000   0.08750000
  0.00000000   0.11500000   0.17500000
  0.06000000  -0.11500000  -0.17500000
  0.06000000  -0.11500000  -0.08750000
  0.06000000  -0.11500000   0.00000000
  0.06000000  -0.11500000   0.08750000
  0.06000000  -0.11500000   0.17500000
  0.06000000  -0.03833333  -0.17500000
  0.06000000  -0.03833333  -0.08750000
  0.06000000  -0.03833333   0.00000000
  0.06000000  -0.03833333   0.08750000
  0.06000000  -0.03833333   0.17500000
  0.06000000   0.03833333  -0.17500000
  0.06000000   0.03833333  -0.08750000
  0.06000000   0.03833333   0.00000000
  0.06000000   0.03833333   0.08750000
  0.06000000   0.03833333   0.17500000
  0.06000000   0.11500000  -0.17500000
  0.06000000   0.11500000  -0.08750000
  0.06000000   0.11500000   0.00000000
  0.06000000   0.11500000   0.08750000
  0.06000000   0.11500000   0.17500000
 -0.03000000  -0.07666666  -0.08750000
 -0.03000000  -0.03833333  -0.13125000
 -0.03000000  -0.07666666   0.08750000
 -0.03000000  -0.03833333   0.13125000
 -0.03000000   0.07666666   0.00000000
  0.00000000  -0.07666666  -0.13125000
  0.03000000  -0.07666666  -0.08750000
  0.00000000  -0.07666666   0.13125000
  0.03000000  -0.07666666   0.08750000
  0.03000000  -0.03833333  -0.13125000
  0.03000000  -0.03833333   0.13125000
  0.03000000   0.07666666   0.00000000
 -0.04000000   0.08944444  -0.14583333
 -0.04000000   0.08944444   0.14583333
  0.04000000   0.08944444  -0.14583333
  0.04000000   0.08944444   0.14583333

CELLS 208 1040
4      0     25     65     20
4     61     25      0      5
4     65     25     60     26
4     60      0     21      1
4      0     25     60     65
4     26     21     27     60
4     27      6      2      7
4      2     21     27     22
4     60     21      2      1
4     27     21      2     60
4      2     27     23     22
4      8     27      2      7
4     23     27     62     28
4     62      2     23      3
4      2     27     62     23
4     28     67     29     62
4     29     63      4      9
4      4     67     29     24
4     62     23      4      3
4     29     67      4     62
4     30     25     31     10
4     31     10      6     11
4     61     25     31     26
4     10     25     61      5
4     31     25     61     10
4      6     31     27     26
4     12     31      6     11
4     27     31     12     32
4     12      6     27      7
4      6     31     12     27
4     32     27     33     12
4     33     12      8     13
4      8     27     33     28
4     12     27      8      7
4     33     27      8     12
4     63     33     29     28
4     14     33      8     13
4     29     33     14     34
4     14     63     29      9
4     63     33     14     29
4     10     35     31     30
4     16     35     72     15
4     31     35     16     36
4     16     10     31     11
4     72     35     16     31
4     36     31     37     16
4     37     16     64     17
4     64     31     37     32
4     16     31     12     11
4     37     31     64     16
4     64     37     33     32
4     18     37     64     17
4     33     37     18     38
4     18     12     33     13
4     64     37     18     33
4     38     33     39     18
4     39     18     73     19
4     14     33     39     34
4     18     33     14     13
4     39     33     73     18
4     45     40     46     69
4     46     69     65     26
4     66     40     46     41
4     25     40     65     20
4     46     40     65     69
4     66     46     42     41
4     27     46     66     26
4     42     46     27     47
4     27     21     42     22
4     66     46     27     42
4     47     42     48     27
4     48     27     68     28
4     68     42     48     43
4     27     42     23     22
4     48     42     68     27
4     68     48     44     43
4     70     48     67     28
4     44     48     70     49
4     29     67     44     24
4     67     48     70     44
4     69     50     46     45
4     31     50     25     30
4     46     50     31     51
4     31     69     46     26
4     69     50     31     46
4     51     46     52     31
4     52     31     27     32
4     27     46     52     47
4     31     46     27     26
4     52     46     27     31
4     27     52     48     47
4     33     52     27     32
4     48     52     33     53
4     33     27     48     28
4     27     52     33     48
4     53     48     54     33
4     54     33     29     34
4     70     48     54     49
4     33     48     70     28
4     54     48     70     33
4     55     50     56     74
4     56     35     31     36
4     31     50     56     51
4     35     50     31     30
4     56     50     31     74
4     31     56     52     51
4     37     56     31     36
4     52     56     71     57
4     71     31     52     32
4     31     56     71     52
4     57     52     58     71
4     58     37     33     38
4     33     52     58     53
4     71     52     33     32
4     58     52     33     71
4     33     58     54     53
4     39     58     33     38
4     54     58     75     59
4     39     33     54     34
4     33     58     75     54
4     60     25     61     26
4      6      0     60      1
4      0     25     61     60
4     26     60     27      6
4      6     60      2      1
4     27     60      2      6
4      6     61      0      5
4      6     61     31     26
4     10     61      6      5
4     31     61      6     10
4     60     61      6     26
4      0     61      6     60
4     62     27      8     28
4      8      2     62      3
4      2     27      8     62
4     28     62     29     63
4      8     62      4      3
4     29     62      4     63
4     63      8      4      9
4      8     33     63     28
4     14      8     63      9
4      8     33     14     63
4     28     62     63      8
4     63     62      4      8
4     64     16     12     17
4     12     31     64     32
4     64     31     12     16
4     12     64     33     32
4     18     64     12     17
4     12     64     18     33
4      0     65     21     20
4     21     65     60     26
4      0     65     60     21
4     46     65     66     26
4     65     40     21     20
4     46     40     66     65
4     21     40     66     41
4     21     66     42     41
4     27     66     21     26
4     21     66     27     42
4     66     65     21     26
4     66     40     21     65
4     28     23     67     62
4      4     23     67     24
4     67     23      4     62
4     67     48     68     28
4     67     23     44     24
4     68     48     67     44
4     68     27     23     28
4     23     42     68     43
4     68     42     23     27
4     23     68     44     43
4     67     68     23     28
4     23     68     67     44
4     45     40     69     25
4     69     25     65     26
4     69     40     65     25
4     25     50     69     45
4     31     25     69     26
4     25     50     31     69
4     29     70     67     28
4     44     70     29     49
4     67     70     29     44
4     29     70     54     49
4     33     70     29     28
4     54     70     29     33
4     71     56     37     57
4     37     31     71     32
4     31     56     37     71
4     57     71     58     37
4     37     71     33     32
4     58     71     33     37
4     72     35     10     15
4     16     72     10     15
4     10     35     72     31
4     10     72     16     31
4     39     73     14     19
4     73     18     14     19
4     39     33     14     73
4     73     33     14     18
4     55     74     56     35
4     55     50     74     35
4     56     74     31     35
4     74     50     31     35
4     75     58     39     59
4     54     75     39     59
4     33     58     39     75
4     33     75     39     54

CELL_TYPES 208
10
10
10
10
10
10
10
10
10
10
10
10
10
10
10
10
10
10
10
10
10
10
10
10
10
10
10
10
10
10
10
10
10
10
10
10
10
10
10
10
10
10
10
10
10
10
10
10
10
10
10
10
10
10
10
10
10
10
10
10
10
10
10
10
10
10
10
10
10
10
10
10
10
10
10
10
10
10
10
10
10
10
10
10
10
10
10
10
10
10
10
10
10
10
10
10
10
10
10
10
10
10
10
10
10
10
10
10
10
10
10
10
10
10
10
10
10
10
10
10
10
10
10
10
10
10
10
10
10
10
10
10
10
10
10
10
10
10
10
10
10
10
10
10
10
10
10
10
10
10
10
10
10
10
10
10
10
10
10
10
10
10
10
10
10
10
10
10
10
10
10
10
10
10
10
10
10
10
10
10
10
10
10
10
10
10
10
10
10
10
10
10
10
10
10
10
10
10
10
10
10
10
10
10
10
10
10
10

POINT_DATA 76
SCALARS pressure double 1
LOOKUP_TABLE default
          0.00000000
          0.00000000
          0.00000000
          0.00000000
          0.00000000
          0.00000000
          0.00000000
          0.00000000
          0.00000000
          0.00000000
          0.00000000
          0.00000000
          0.00000000
          0.00000000
          0.00000000
          0.00000000
          0.00000000
          0.00000000
          0.00000000
          0.00000000
          0.00000000
          0.00000000
          0.00000000
          0.00000000
          0.00000000
          0.00000000
    1000000.00000000
    1000000.00000000
    1000000.00000000
          0.00000000
          0.00000000
    1000000.00000000
    1000000.00000000
    1000000.00000000
          0.00000000
          0.00000000
          0.00000000
          0.00000000
          0.00000000
          0.00000000
          0.00000000
          0.00000000
          0.00000000
          0.00000000
          0.00000000
          0.00000000
          0.00000000
          0.00000000
          0.00000000
          0.00000000
          0.00000000
          0.00000000
          0.00000000
          0.00000000
          0.00000000
          0.00000000
          0.00000000
          0.00000000
          0.00000000
          0.00000000
     500000.00000000
     500000.00000000
     500000.00000000
     500000.00000000
     500000.00000000
     638888.91666667
     500000.00000000
     638888.91666667
     500000.00000000
     500000.00000000
     500000.00000000
     500000.00000000
     333333.33333333
     333333.33333333
     333333.33333333
     333333.33333333

