# vtk DataFile Version 3.0
Test pressure on coarse bunny
ASCII

DATASET UNSTRUCTURED_GRID
POINTS 478 double
 -0.09458345  -0.01661997   0.11796511
 -0.09338510  -0.02938026   0.12006043
 -0.09320886  -0.02057094   0.12903376
 -0.09305822  -0.03940393   0.11704537
 -0.09134434  -0.03858521   0.12843135
 -0.09111629  -0.00806589   0.12937224
 -0.09084854  -0.02624494   0.14462298
 -0.09082096  -0.01564730   0.15087050
 -0.09074200  -0.01449439   0.13974965
 -0.08983732  -0.02814636   0.13506307
 -0.08954702  -0.01127830   0.09803274
 -0.08908944  -0.01520202   0.08807985
 -0.08903614  -0.00214130   0.11855197
 -0.08812921  -0.03929657   0.14044914
 -0.08804329  -0.00533687   0.08918335
 -0.08780273  -0.01174049   0.10992146
 -0.08777362  -0.01876055   0.10465893
 -0.08772598  -0.02428999   0.09161085
 -0.08757955  -0.04788972   0.12657678
 -0.08626513  -0.03476630   0.11229952
 -0.08573154  -0.04605363   0.11346115
 -0.08558612  -0.00314142   0.13737714
 -0.08554389  -0.03038728   0.15055139
 -0.08540531   0.00294760   0.12715165
 -0.08513726  -0.00989005   0.07839413
 -0.08503976  -0.00392896   0.10865181
 -0.08493277   0.00215499   0.09754780
 -0.08436987  -0.02430814   0.10963458
 -0.08356274  -0.00406410   0.14921728
 -0.08357175  -0.02453250   0.07939534
 -0.08350500   0.00383938   0.08341950
 -0.08347652  -0.03043971   0.09929587
 -0.08009493  -0.05139177   0.13493381
 -0.07939044  -0.02070620   0.15548319
 -0.07932405  -0.00661294   0.15420342
 -0.07926493   0.03817303   0.16926839
 -0.07905209  -0.03599806   0.08490265
 -0.07874778   0.00487481   0.13748677
 -0.07842018  -0.04206751   0.14634603
 -0.07832740   0.00664930   0.10631460
 -0.07798532  -0.01651182   0.06899531
 -0.07782297   0.02363149   0.16245645
 -0.07780508   0.04973723   0.17726676
 -0.07773501   0.00701322   0.07580360
 -0.07762647   0.01162892   0.09577518
 -0.07711507   0.00503724   0.11514691
 -0.07694605   0.00226688   0.15349403
 -0.07693776  -0.00139501   0.07006370
 -0.07652391   0.01299711   0.15361565
 -0.07631596   0.00725786   0.14672257
 -0.07580944   0.04026371   0.17420107
 -0.07580088  -0.05334413   0.12208131
 -0.07468760   0.00783099   0.15951531
 -0.07439688  -0.03770527   0.10700516
 -0.07437739   0.02182791   0.14814629
 -0.07398857   0.00838238   0.12757690
 -0.07381406  -0.03496405   0.15253796
 -0.07361027  -0.03934747   0.09689748
 -0.07350896  -0.03143003   0.07125594
 -0.07330473   0.01553210   0.08263900
 -0.07296572  -0.05178176   0.13034120
 -0.07287589   0.03104442   0.17162373
 -0.07279750   0.03663355   0.16091059
 -0.07258306   0.03352926   0.14988780
 -0.07228988   0.04505426   0.17656434
 -0.07168939   0.01867127   0.16639122
 -0.07157812   0.04626755   0.16687953
 -0.07151088  -0.00988151   0.03778138
 -0.07115041  -0.04985271   0.11337729
 -0.07111582   0.04527333   0.15285821
 -0.07096260  -0.00918398   0.06243008
 -0.07097965  -0.01202237   0.15610674
 -0.07050362   0.00352827   0.03450381
 -0.07043180  -0.04498988   0.14324637
 -0.07040375   0.00823902   0.14067671
 -0.07007903   0.01301692   0.10557450
 -0.06907733   0.05601464   0.17340591
 -0.06818685   0.00974848   0.07011780
 -0.06771247   0.04283231   0.15091883
 -0.06765702   0.01650126   0.14418217
 -0.06763946   0.00902764   0.11619628
 -0.06748050   0.05790761   0.18134086
 -0.06734754   0.01695263   0.09681039
 -0.06730004  -0.02053068   0.06199620
 -0.06672806   0.05592182   0.15873464
 -0.06665306  -0.00157998   0.04542547
 -0.06653568  -0.02504166   0.15614558
 -0.06648534  -0.04445443   0.09050284
 -0.06628606  -0.03178256   0.03526078
 -0.06621039  -0.05152418   0.12057719
 -0.06611664   0.02914522   0.14773157
 -0.06560907  -0.04102401   0.07643074
 -0.06583805  -0.04487685   0.13212400
 -0.06542454   0.00811037   0.13504994
 -0.06528483  -0.02948751   0.04130377
 -0.06501704  -0.00901542   0.03353219
 -0.06489796  -0.00494353   0.15525028
 -0.06483336  -0.04050558   0.03599628
 -0.06447980   0.01229837   0.15882019
 -0.06417480  -0.04072563   0.10253868
 -0.06397671   0.00058879   0.06121304
 -0.06372643   0.05015010   0.15879175
 -0.06367393   0.01839095   0.08588968
 -0.06304397   0.04012531   0.16731253
 -0.06285345   0.02607582   0.16342016
 -0.06252930  -0.02064014   0.03517226
 -0.06221833   0.03440988   0.15630858
 -0.06212874   0.01823987   0.07545870
 -0.06205385   0.05159910   0.17300634
 -0.06203281   0.02091070   0.15121761
 -0.06189775   0.00513450   0.14851399
 -0.06167876  -0.03259662   0.06582982
 -0.06166830   0.00824523   0.12558183
 -0.06148128  -0.03765820   0.11384006
 -0.06141650   0.06134936   0.16918401
 -0.06139766  -0.04042719   0.04588208
 -0.06102005  -0.03597566   0.13731539
 -0.06187060  -0.01254101   0.04320809
 -0.06061413  -0.03568391   0.15124375
 -0.06044759  -0.04256299   0.12439717
 -0.06012459  -0.01125455   0.05831664
 -0.06011107   0.00763725   0.04174812
 -0.05894893   0.01726919   0.10892444
 -0.05816042  -0.01493785   0.15572862
 -0.05796446  -0.04011751   0.03413426
 -0.05746928   0.01066150   0.03389666
 -0.05651360   0.02129722   0.09595811
 -0.05633576  -0.04369131   0.09702133
 -0.05632396  -0.01947541   0.04189562
 -0.05630668   0.00184932   0.15206060
 -0.05546409  -0.04764073   0.03706172
 -0.05527247   0.01061377   0.12104825
 -0.05524779   0.00099345   0.05273161
 -0.05512823   0.00856620   0.06386538
 -0.05484321  -0.02443902   0.15334518
 -0.05482918  -0.00824023   0.05237382
 -0.05478933  -0.04163068   0.07316579
 -0.05466513  -0.00006350   0.03350619
 -0.05465656   0.00335795   0.13792598
 -0.05463809  -0.03004283   0.03403757
 -0.05447590   0.02196718   0.08399636
 -0.05401900  -0.01584800   0.03330990
 -0.05400449  -0.02711165   0.14251596
 -0.05328703  -0.00302027   0.16217895
 -0.05321050  -0.01398700   0.03358530
 -0.05284468  -0.02779065   0.04964979
 -0.05255888  -0.02348603   0.05785440
 -0.05238294  -0.04563762   0.08494722
 -0.05167030  -0.04062840   0.10579281
 -0.05134407   0.00434821   0.12909432
 -0.05118041  -0.01569696   0.14377207
 -0.05088425  -0.03061619   0.13181751
 -0.05062401  -0.03630970   0.06561452
 -0.05062360  -0.00187451   0.13835688
 -0.05047023  -0.01702789   0.04870777
 -0.04941009  -0.03287987   0.11730140
 -0.04909930   0.00910193   0.05218951
 -0.04824911  -0.00992254   0.14869140
 -0.04781640   0.02116977   0.10315328
 -0.04781581  -0.03966088   0.04893969
 -0.04772381  -0.01857284   0.13518088
 -0.04771895   0.00780426   0.15643063
 -0.04727260   0.01680459   0.07250315
 -0.04719481  -0.03795948   0.05943124
 -0.04710430  -0.00808039   0.03554950
 -0.04583236  -0.03696064   0.03464293
 -0.04683401   0.01365754   0.03363440
 -0.04639921   0.01163072   0.04335992
 -0.04631184   0.00543064   0.12731203
 -0.04485843   0.01272915   0.06082370
 -0.04440554   0.00666448   0.16968875
 -0.04437288  -0.00583286   0.16248287
 -0.04430033   0.01631914   0.11543744
 -0.04428202  -0.00025276   0.16939367
 -0.04416732   0.02516425   0.03469025
 -0.04409458   0.00155947   0.14677122
 -0.04401927   0.02238318   0.08842855
 -0.04379775  -0.01008975   0.12976180
 -0.04361500  -0.02259722   0.12554580
 -0.04232100  -0.04230667   0.07227972
 -0.04222132  -0.04286803   0.09596041
 -0.04189550  -0.02694000   0.03366830
 -0.04119872   0.00176220   0.03385134
 -0.03991115  -0.04314466   0.08465390
 -0.03970295   0.00722840   0.03612670
 -0.03958628   0.01190424   0.15982261
 -0.03955759   0.02086446   0.04551552
 -0.03933017  -0.04340114   0.03618446
 -0.03830456  -0.03777107   0.10832740
 -0.03806660   0.00730796   0.03851860
 -0.03725803  -0.00465400   0.03363592
 -0.03716819   0.02821345   0.04279787
 -0.03709185  -0.00294180   0.12769856
 -0.03705797  -0.04012994   0.05967758
 -0.03669996  -0.03973728   0.04799189
 -0.03666267  -0.02301283   0.03530570
 -0.03632057   0.00463917   0.17534015
 -0.03611591   0.01986354   0.07690334
 -0.03603351   0.02165592   0.10214394
 -0.03582297  -0.00314138   0.15518705
 -0.03540741  -0.01622096   0.12699090
 -0.03502825  -0.02973574   0.11938918
 -0.03493461   0.00027240   0.17253873
 -0.03489022   0.01987036   0.03408888
 -0.03483460  -0.03457820   0.03472140
 -0.03465757   0.01494406   0.06567691
 -0.03463067   0.00568792   0.15231478
 -0.03416518   0.00342382   0.16426592
 -0.03371136   0.02473290   0.08713795
 -0.03368331   0.01590796   0.17233591
 -0.03365640  -0.03691410   0.03434410
 -0.03348359   0.03081770   0.03404458
 -0.03313432   0.01123111   0.05267062
 -0.03299262   0.00730238   0.12298099
 -0.03207420   0.00042109   0.03832340
 -0.03151476  -0.04908253   0.04486764
 -0.03135289   0.01693615   0.11256228
 -0.03111639   0.03264036   0.07901876
 -0.03098470  -0.03239010   0.03819190
 -0.03087133  -0.04133992   0.07892252
 -0.03030710  -0.01470640   0.03399540
 -0.02974525  -0.01641444   0.03435528
 -0.02953424   0.02912579   0.06716205
 -0.02928386  -0.03635915   0.05374970
 -0.02898582  -0.00681432   0.12543231
 -0.02886150  -0.01735000   0.03539670
 -0.02878595  -0.04441342   0.09208322
 -0.02790970  -0.00770577   0.03807013
 -0.02778114  -0.03845590   0.06527531
 -0.02771639  -0.04366496   0.10043318
 -0.02769868   0.02598660   0.05688822
 -0.02755215  -0.03580701   0.11344909
 -0.02720835   0.00884064   0.18142209
 -0.02702240   0.02616613   0.04873744
 -0.02671738   0.01183408   0.15793029
 -0.02686482   0.01735345   0.17972967
 -0.02658050  -0.01570530   0.03774260
 -0.02630785   0.01657957   0.03742738
 -0.02633345  -0.01808561   0.12497459
 -0.02632310  -0.04347350   0.03465800
 -0.02555289   0.02522125   0.09620450
 -0.02546592  -0.05402583   0.04130899
 -0.02530305   0.02934651   0.03985515
 -0.02509785  -0.05303477   0.08163234
 -0.02459394   0.01130379   0.16975506
 -0.02443242  -0.02834694   0.12126087
 -0.02426547  -0.04654619   0.07116401
 -0.02372362   0.03825047   0.08700444
 -0.02332000  -0.03847330   0.03916950
 -0.02295787   0.00275936   0.15881787
 -0.02257976   0.02180238   0.10762697
 -0.02204803  -0.04358889   0.05154114
 -0.02205686   0.00672355   0.03872819
[...]
POINT_DATA 478
SCALARS pressure1 double 1
LOOKUP_TABLE default
          0.00000000
          0.00000000
          0.00000000
          0.00000000
          0.00000000
          0.00000000
          0.00000000
          0.00000000
          0.00000000
          0.00000000
          0.00000000
          0.00000000
          0.00000000
          0.00000000
          0.00000000
          0.00000000
          0.00000000
          0.00000000
          0.00000000
          0.00000000
          0.00000000
          0.00000000
          0.00000000
          0.00000000
          0.00000000
          0.00000000
          0.00000000
          0.00000000
          0.00000000
          0.00000000
          0.00000000
          0.00000000
          0.00000000
          0.00000000
          0.00000000
          0.00000000
          0.00000000
          0.00000000
          0.00000000
          0.00000000
          0.00000000
          0.00000000
          0.00000000
          0.00000000
          0.00000000
          0.00000000
          0.00000000
          0.00000000
          0.00000000
          0.00000000
          0.00000000
          0.00000000
          0.00000000
          0.00000000
          0.00000000
          0.00000000
          0.00000000
          0.00000000
          0.00000000
          0.00000000
          0.00000000
          0.00000000
          0.00000000
          0.00000000
          0.00000000
          0.00000000
          0.00000000
          0.00000000
          0.00000000
          0.00000000
          0.00000000
          0.00000000
          0.00000000
          0.00000000
          0.00000000
          0.00000000
          0.00000000
          0.00000000
          0.00000000
          0.00000000
          0.00000000
          0.00000000
          0.00000000
          0.00000000
          0.00000000
          0.00000000
          0.00000000
          0.00000000
          0.00000000
          0.00000000
          0.00000000
          0.00000000
          0.00000000
          0.00000000
          0.00000000
          0.00000000
          0.00000000
          0.00000000
          0.00000000
          0.00000000
          0.00000000
          0.00000000
          0.00000000
          0.00000000
          0.00000000
          0.00000000
          0.00000000
          0.00000000
          0.00000000
          0.00000000
          0.00000000
          0.00000000
          0.00000000
          0.00000000
          0.00000000
          0.00000000
          0.00000000
          0.00000000
          0.00000000
          0.00000000
          0.00000000
          0.00000000
          0.00000000
          0.00000000
          0.00000000
          0.00000000
          0.00000000
          0.00000000
          0.00000000
          0.00000000
          0.00000000
          0.00000000
          0.00000000
          0.00000000
          0.00000000
          0.00000000
          0.00000000
          0.00000000
          0.00000000
          0.00000000
          0.00000000
          0.00000000
          0.00000000
          0.00000000
          0.00000000
          0.00000000
          0.00000000
          0.00000000
          0.00000000
          0.00000000
          0.00000000
          0.00000000
          0.00000000
          0.00000000
          0.00000000
          0.00000000
          0.00000000
          0.00000000
          0.00000000
          0.00000000
          0.00000000
          0.00000000
          0.00000000
          0.00000000
          0.00000000
          0.00000000
          0.00000000
          0.00000000
          0.00000000
          0.00000000
          0.00000000
          0.00000000
          0.00000000
          0.00000000
          0.00000000
          0.00000000
          0.00000000
          0.00000000
          0.00000000
          0.00000000
          0.00000000
          0.00000000
          0.00000000
          0.00000000
          0.00000000
          0.00000000
          0.00000000
          0.00000000
          0.00000000
          0.00000000
          0.00000000
          0.00000000
          0.00000000
          0.00000000
          0.00000000
          0.00000000
          0.00000000
          0.00000000
          0.00000000
          0.00000000
          0.00000000
          0.00000000
          0.00000000
          0.00000000
          0.00000000
          0.00000000
          0.00000000
          0.00000000
          0.00000000
          0.00000000
          0.00000000
          0.00000000
          0.00000000
          0.00000000
          0.00000000
          0.00000000
          0.00000000
          0.00000000
          0.00000000
          0.00000000
          0.00000000
          0.00000000
          0.00000000
          0.00000000
          0.00000000
          0.00000000
          0.00000000
          0.00000000
          0.00000000
          0.00000000
          0.00000000
          0.00000000
          0.00000000
          0.00000000
          0.00000000
          0.00000000
          0.00000000
          0.00000000
          0.00000000
          0.00000000
          0.00000000
          0.00000000
          0.00000000
          0.00000000
          0.00000000
          0.00000000
          0.00000000
          0.00000000
          0.00000000
          0.00000000
          0.00000000
          0.00000000
          0.00000000
          0.00000000
          0.00000000
          0.00000000
          0.00000000
          0.00000000
          0.00000000
          0.00000000
          0.00000000
          0.00000000
          0.00000000
          0.00000000
          0.00000000
          0.00000000
          0.00000000
          0.00000000
          0.00000000
          0.00000000
          0.00000000
          0.00000000
          0.00000000
          0.00000000
          0.00000000
          0.00000000
          0.00000000
          0.00000000
          0.00000000
          0.00000000
          0.00000000
          0.00000000
          0.00000000
          0.00000000
          0.00000000
          0.00000000
          0.00000000
          0.00000000
          0.00000000
          0.00000000
          0.00000000
          0.00000000
          0.00000000
          0.00000000
          0.00000000
          0.00000000
          0.00000000
          0.00000000
          0.00000000
          0.00000000
          0.00000000
          0.00000000
          0.00000000
          0.00000000
          0.00000000
          0.00000000
          0.00000000
          0.00000000
          0.00000000
          0.00000000
          0.00000000
          0.00000000
          0.00000000
          0.00000000
          0.00000000
          0.00000000
          0.00000000
          0.00000000
          0.00000000
          0.00000000
          0.00000000
          0.00000000
          0.00000000
          0.00000000
          0.00000000
          0.00000000
          0.00000000
          0.00000000
          0.00000000
          0.00000000
          0.00000000
          0.00000000
          0.00000000
          0.00000000
          0.00000000
          0.00000000
          0.00000000
          0.00000000
          0.00000000
          0.00000000
          0.00000000
          0.00000000
          0.00000000
          0.00000000
          0.00000000
          0.00000000
          0.00000000
          0.00000000
          0.00000000
          0.00000000
          0.00000000
          0.00000000
          0.00000000
          0.00000000
          0.00000000
          0.00000000
          0.00000000
          0.00000000
          0.00000000
          0.00000000
          0.00000000
          0.00000000
          0.00000000
          0.00000000
          0.00000000
          0.00000000
          0.00000000
          0.00000000
          0.00000000
          0.00000000
          0.00000000
          0.00000000
          0.00000000
          0.00000000
          0.00000000
          0.00000000
          0.00000000
          0.00000000
          0.00000000
          0.00000000
          0.00000000
          0.00000000
          0.00000000
          0.00000000
          0.00000000
          0.00000000
          0.00000000
          0.00000000
          0.00000000
          0.00000000
          0.00000000
          0.00000000
          0.00000000
          0.00000000
          0.00000000
          0.00000000
          0.00000000
          0.00000000
          0.00000000
          0.00000000
          0.00000000
          0.00000000
          0.00000000
          0.00000000
          0.00000000
          0.00000000
          0.00000000
          0.00000000
          0.00000000
          0.00000000
          0.00000000
          0.00000000
          0.00000000
          0.00000000
          0.00000000
          0.00000000
          0.00000000
          0.00000000
          0.00000000
          0.00000000
          0.00000000
          0.00000000
          0.00000000
          0.00000000
          0.00000000
          0.00000000
          0.00000000
          0.00000000
          0.85651505
          0.73018746
          0.00000000
          0.00000000
          0.00000000
          0.00000000
          0.00000000
          0.00000000
          0.00000000
          0.00000000
          0.45096781
          0.00000000
          0.00000000
          0.00000000
          0.00000000
          0.00000000
          0.00000000
          0.74860551
          0.58080366
          0.89777525
          0.30516088
          0.00000000
          0.00000000
          0.88777783
          0.00000000
          0.00000000
          0.00000000
          0.00000000
          0.00000000
          0.20353562
          0.00000000
          0.85878869
          0.00000000
          0.80615328
          0.43950428
          0.66375294
          0.72117238
          0.42873252
          0.97404591
          0.64094555
          0.87903574
          1.00000000
          0.54233092
          0.77565748
          0.50342184
          0.79649606
          0.85555988
          0.36806135
          0.67186145
          0.00000000

