# vtk DataFile Version 3.0
Test pressure on fixed pepper with hydroelastic modulus 1e6 Pascals
ASCII

DATASET UNSTRUCTURED_GRID
POINTS 805 double
  0.00539618   0.00439301   0.05940566
  0.00696833   0.00214553   0.06999070
  0.01150791   0.00501259   0.06893821
  0.00358252   0.00270010   0.06058605
  0.00201922  -0.00058183   0.06915502
 -0.00267546   0.00032897   0.06092288
 -0.00547128  -0.00297002   0.06675148
 -0.00314989  -0.00273976   0.06827538
 -0.00642733   0.00009790   0.06053905
 -0.00991645  -0.00218602   0.06474566
 -0.00821025  -0.00268921   0.06509884
 -0.00798511   0.00102761   0.05970972
 -0.01184241  -0.00053547   0.06432925
 -0.01012276   0.00254734   0.05858280
 -0.01577745   0.00231677   0.06300260
 -0.01272706   0.00447771   0.05723245
 -0.01716863   0.00384368   0.06112652
 -0.01337407   0.00727542   0.05594636
 -0.01917090   0.00689459   0.05860655
 -0.01853251   0.00563258   0.05874931
 -0.01303093   0.00888357   0.05556406
 -0.01929334   0.00982751   0.05853219
 -0.01329721   0.01182154   0.05532197
 -0.01746950   0.01636695   0.05691423
 -0.01190338   0.01502078   0.05452263
 -0.01268870   0.02076523   0.05537929
 -0.00950571   0.01791005   0.05382047
 -0.00864612   0.02280084   0.05404434
 -0.00609407   0.02386308   0.05284590
 -0.00601993   0.01960756   0.05285658
 -0.00493493   0.02435356   0.05245475
 -0.00476614   0.01957026   0.05273116
 -0.00311446   0.02439626   0.05254560
  0.00044759   0.01882956   0.05325694
  0.00230693   0.02322392   0.05431617
  0.00312886   0.01667113   0.05361741
  0.00669421   0.02069080   0.05485816
  0.00453932   0.01587469   0.05372775
  0.00907090   0.01870076   0.05469516
  0.00480950   0.01446356   0.05377062
  0.01469575   0.01408115   0.06164993
  0.00658625   0.00742318   0.05704939
  0.01504114   0.00846591   0.06548934
  0.00681393   0.00582839   0.05845688
  0.01367783   0.00564633   0.06707034
  0.00548971   0.01063053   0.05482994
  0.01175562   0.01653819   0.05706020
  0.00057500   0.00087357   0.06159342
  0.01543732   0.02522751   0.05438723
  0.01716960   0.02267969   0.05495524
  0.02266594   0.03023793   0.05099395
  0.02638140   0.02668911   0.05252352
  0.02648410   0.03147934   0.04788178
  0.01921593   0.02198997   0.05941466
  0.03134183   0.02712740   0.05097340
  0.02983910   0.02818148   0.04877381
  0.03136863   0.02890232   0.04231913
  0.02882475   0.03185417   0.04099650
  0.03401202   0.02648072   0.04303670
  0.02012048   0.00493549   0.07142679
  0.03048229  -0.00018933   0.07120003
  0.02950106   0.00406001   0.06893871
  0.02142776   0.00823661   0.06966275
  0.02208381   0.01686975   0.06652869
 -0.00400593   0.02834481   0.05109822
 -0.00586417   0.02721543   0.05177524
 -0.00013382   0.03966242   0.04348447
 -0.00183248   0.02883215   0.05180649
 -0.00793103   0.03811459   0.04295455
 -0.02825685   0.00762509   0.06079599
 -0.03451122   0.00286966   0.05634742
 -0.02798110   0.00457668   0.06039100
 -0.03695020   0.00577954   0.05533187
 -0.03781454   0.00091247   0.05065562
 -0.02770297   0.00346741   0.06384635
 -0.03528445   0.00078354   0.05846579
 -0.03808907  -0.00267151   0.05315358
 -0.01185990  -0.00806132   0.07104475
 -0.00978198  -0.00791745   0.07305852
 -0.01513337  -0.01718226   0.07425960
 -0.01436309  -0.02688906   0.07297666
 -0.01291179  -0.01733474   0.07704231
 -0.01421468  -0.00707890   0.07084359
 -0.01721223  -0.01612057   0.07358152
 -0.02070324  -0.02376193   0.06997298
  0.00980062  -0.00025323   0.07825859
  0.01644215   0.00350980   0.07646395
  0.00405873  -0.00407027   0.07775891
 -0.00402493  -0.00751173   0.07513648
 -0.00683400  -0.00753925   0.07425918
 -0.02111517  -0.00275403   0.07203114
 -0.02582129  -0.00844023   0.07372764
 -0.02871059  -0.01683002   0.06829907
 -0.02416070   0.00148940   0.06905752
 -0.03296113  -0.00246524   0.06851168
 -0.03564223  -0.01058712   0.06178322
 -0.01298596   0.00583051   0.05632886
 -0.02316825   0.01887352   0.05862011
 -0.01605845   0.02627253   0.05592177
 -0.00952123   0.02755992   0.05367211
 -0.03198428   0.02209175   0.05386618
 -0.02260971   0.03409211   0.05087081
  0.00646657   0.02875813   0.05384984
  0.01129469   0.03654489   0.04983511
  0.02764386   0.02559168   0.05675030
  0.03124375   0.01635741   0.06494923
  0.03058078   0.00829718   0.06831603
  0.01878387  -0.00862526   0.07951258
  0.00783702  -0.01336857   0.08057109
 -0.00344255  -0.01753737   0.07974420
 -0.00831482  -0.01775315   0.07964431
 -0.03908090   0.00493025   0.04992829
 -0.03481071   0.02248065   0.04573799
 -0.02509587   0.03434360   0.04189451
 -0.01266379   0.03743495   0.04625985
 -0.01428675   0.03821963   0.03888042
 -0.00385250   0.03831982   0.04145268
 -0.00753057   0.03834016   0.03658734
  0.00099296   0.04007204   0.03805261
 -0.00314830   0.03850893   0.03660905
  0.01427898   0.03905218   0.04316400
  0.03629883   0.01462736   0.06038355
  0.03629936   0.00652375   0.06357303
  0.03575505   0.00211407   0.06411166
  0.03435146  -0.00424490   0.06744339
  0.02365105  -0.01594914   0.07520384
  0.01106520  -0.02343423   0.07785666
 -0.00331517  -0.02796467   0.07618240
 -0.00907875  -0.02822546   0.07533424
  0.01560983   0.03832780   0.03497026
  0.00137332   0.03667871   0.03016816
 -0.00283440   0.03541563   0.02948556
 -0.02589961   0.03198707   0.03239247
 -0.01570089   0.03610407   0.03055196
 -0.03548691   0.02047324   0.03598934
 -0.04030865   0.00340683   0.04129660
 -0.03923583  -0.00136401   0.04242066
 -0.03841018  -0.00706480   0.04478567
 -0.03537412  -0.01577223   0.05010203
 -0.03021225  -0.02341138   0.05558728
 -0.02328110  -0.03004025   0.05933224
 -0.01821525  -0.03235210   0.06149990
 -0.01709745  -0.02547190   0.07103676
 -0.01392952  -0.03451885   0.06392302
 -0.00784060  -0.03599598   0.06594941
  0.00010171  -0.03611340   0.06718905
  0.02744303  -0.02411152   0.06615968
  0.01434537  -0.03384148   0.06829588
  0.03600886  -0.01152164   0.06038328
  0.03931559  -0.00220853   0.05649503
  0.04014919   0.00462424   0.05543979
  0.03947806   0.01360539   0.05238699
 -0.00242650   0.03122504   0.02232566
 -0.00750078   0.02693227   0.01515079
 -0.00827703   0.03208712   0.02264051
 -0.00085273   0.01873544   0.00721686
 -0.00549473   0.01218612   0.00116582
 -0.00613989   0.01985559   0.00652681
 -0.00039071   0.01076511   0.00273754
 -0.00676771   0.00658202  -0.00020435
 -0.00163581   0.00339679   0.00227655
 -0.01005008   0.00276713   0.00028737
 -0.01192997  -0.00304057   0.00236467
 -0.00446597  -0.00196660   0.00324462
  0.00260986   0.03216838   0.02221612
 -0.00177111   0.02627094   0.01519409
  0.00439273   0.01887907   0.00638086
  0.00283809   0.00341105   0.00265562
  0.00166335  -0.00072012   0.00370593
 -0.00513613  -0.00625800   0.00288112
 -0.01093641  -0.00701858   0.00198514
 -0.00664581  -0.01241912   0.00228036
 -0.01392972   0.00024029   0.00148846
 -0.02070689  -0.00268181   0.00376408
 -0.02007985   0.00173737   0.00352785
 -0.02722764   0.00347317   0.00915462
 -0.02834641  -0.00206592   0.01013373
 -0.03400313   0.00488377   0.01761607
 -0.03426400  -0.00214397   0.01895305
 -0.03907404   0.00447589   0.02864707
  0.00082585  -0.00627921   0.00434780
  0.00285534  -0.00407717   0.00382601
  0.00676043  -0.00826859   0.00295096
  0.01503971  -0.00917188   0.00276802
  0.01371937  -0.01196796   0.00284656
  0.00224979  -0.01010950   0.00228592
  0.01146956  -0.01331794   0.00143745
  0.00605622  -0.01022166   0.00183216
 -0.00013156  -0.01314018   0.00133780
 -0.00454669  -0.01419428   0.00228290
 -0.00236036  -0.00959655   0.00250314
 -0.00207204  -0.01680048   0.00148793
 -0.00696651  -0.02044410   0.00400958
 -0.01076583  -0.01291881   0.00158275
 -0.00942239  -0.01901150   0.00348376
 -0.01258680  -0.01749139   0.00263312
  0.00893848  -0.00171944   0.00050104
  0.00809938  -0.00562885   0.00188323
  0.01666739  -0.00375714   0.00136111
  0.02426636  -0.00634095   0.00595520
  0.01919010  -0.01951321   0.00670908
  0.02088424  -0.01762611   0.00886338
  0.02206879  -0.02416574   0.01388119
  0.02316205  -0.01399092   0.00941981
  0.02461630  -0.01947768   0.01565251
 -0.00418381  -0.02234754   0.00325190
 -0.01014856  -0.02718920   0.00969095
 -0.01378394  -0.02480295   0.00798680
 -0.01783320  -0.02017572   0.00549019
  0.01033358   0.00384118  -0.00005678
  0.00404079   0.01074678   0.00245923
  0.01384175   0.02663426   0.01452441
  0.01511965   0.03414103   0.02460682
  0.01296057   0.01857350   0.00566526
  0.00323589  -0.01856019  -0.00018306
  0.00010614  -0.02435732   0.00195278
  0.00045884  -0.01960198   0.00035887
  0.01313574  -0.02382645   0.00232903
  0.00514044  -0.02480088   0.00139351
  0.00786010  -0.01649783   0.00009731
 -0.00639183  -0.02963206   0.00963550
 -0.00073252  -0.03157068   0.00894301
  0.00543700  -0.03153386   0.00861637
  0.01557329  -0.02930644   0.00962997
 -0.03891789  -0.00220001   0.03000955
 -0.03394619  -0.00908287   0.01979928
 -0.03801505  -0.00919699   0.03215092
 -0.02876292  -0.00712248   0.00944430
 -0.02130940  -0.00846076   0.00256311
 -0.01964306  -0.01450940   0.00291545
  0.01951166   0.00269636   0.00085763
  0.01173661   0.01036527   0.00135826
  0.02032397   0.00877539   0.00253217
  0.02445129   0.02322054   0.01771711
  0.02771180   0.02916713   0.02987283
 -0.01662146   0.00757993   0.00195480
 -0.02322356   0.01134016   0.00785831
 -0.02986074   0.01527766   0.01578236
 -0.03402199   0.01811001   0.02551875
 -0.02486731   0.02809803   0.02302555
 -0.02172440   0.02308457   0.01531240
 -0.01731361   0.01702931   0.00706574
 -0.01233660   0.01151350   0.00147176
 -0.01527373   0.03198803   0.02252813
  0.02205463   0.01580225   0.00760859
  0.00397930   0.02676393   0.01469094
 -0.01378771   0.02649599   0.01524059
 -0.01150103   0.01967474   0.00668483
 -0.00876926   0.03611443   0.02994049
 -0.00718476   0.01929314   0.05318692
 -0.00810673   0.01857433   0.05341856
 -0.00964222   0.01363992   0.00173360
[...]
POINT_DATA 805
SCALARS pressure double 1
LOOKUP_TABLE default
          0.00000000
          0.00000000
          0.00000000
          0.00000000
          0.00000000
          0.00000000
          0.00000000
          0.00000000
          0.00000000
          0.00000000
          0.00000000
          0.00000000
          0.00000000
          0.00000000
          0.00000000
          0.00000000
          0.00000000
          0.00000000
          0.00000000
          0.00000000
          0.00000000
          0.00000000
          0.00000000
          0.00000000
          0.00000000
          0.00000000
          0.00000000
          0.00000000
          0.00000000
          0.00000000
          0.00000000
          0.00000000
          0.00000000
          0.00000000
          0.00000000
          0.00000000
          0.00000000
          0.00000000
          0.00000000
          0.00000000
          0.00000000
          0.00000000
          0.00000000
          0.00000000
          0.00000000
          0.00000000
          0.00000000
          0.00000000
          0.00000000
          0.00000000
          0.00000000
          0.00000000
          0.00000000
          0.00000000
          0.00000000
          0.00000000
          0.00000000
          0.00000000
          0.00000000
          0.00000000
          0.00000000
          0.00000000
          0.00000000
          0.00000000
          0.00000000
          0.00000000
          0.00000000
          0.00000000
          0.00000000
          0.00000000
          0.00000000
          0.00000000
          0.00000000
          0.00000000
          0.00000000
          0.00000000
          0.00000000
          0.00000000
          0.00000000
          0.00000000
          0.00000000
          0.00000000
          0.00000000
          0.00000000
          0.00000000
          0.00000000
          0.00000000
          0.00000000
          0.00000000
          0.00000000
          0.00000000
          0.00000000
          0.00000000
          0.00000000
          0.00000000
          0.00000000
          0.00000000
          0.00000000
          0.00000000
          0.00000000
          0.00000000
          0.00000000
          0.00000000
          0.00000000
          0.00000000
          0.00000000
          0.00000000
          0.00000000
          0.00000000
          0.00000000
          0.00000000
          0.00000000
          0.00000000
          0.00000000
          0.00000000
          0.00000000
          0.00000000
          0.00000000
          0.00000000
          0.00000000
          0.00000000
          0.00000000
          0.00000000
          0.00000000
          0.00000000
          0.00000000
          0.00000000
          0.00000000
          0.00000000
          0.00000000
          0.00000000
          0.00000000
          0.00000000
          0.00000000
          0.00000000
          0.00000000
          0.00000000
          0.00000000
          0.00000000
          0.00000000
          0.00000000
          0.00000000
          0.00000000
          0.00000000
          0.00000000
          0.00000000
          0.00000000
          0.00000000
          0.00000000
          0.00000000
          0.00000000
          0.00000000
          0.00000000
          0.00000000
          0.00000000
          0.00000000
          0.00000000
          0.00000000
          0.00000000
          0.00000000
          0.00000000
          0.00000000
          0.00000000
          0.00000000
          0.00000000
          0.00000000
          0.00000000
          0.00000000
          0.00000000
          0.00000000
          0.00000000
          0.00000000
          0.00000000
          0.00000000
          0.00000000
          0.00000000
          0.00000000
          0.00000000
          0.00000000
          0.00000000
          0.00000000
          0.00000000
          0.00000000
          0.00000000
          0.00000000
          0.00000000
          0.00000000
          0.00000000
          0.00000000
          0.00000000
          0.00000000
          0.00000000
          0.00000000
          0.00000000
          0.00000000
          0.00000000
          0.00000000
          0.00000000
          0.00000000
          0.00000000
          0.00000000
          0.00000000
          0.00000000
          0.00000000
          0.00000000
          0.00000000
          0.00000000
          0.00000000
          0.00000000
          0.00000000
          0.00000000
          0.00000000
          0.00000000
          0.00000000
          0.00000000
          0.00000000
          0.00000000
          0.00000000
          0.00000000
          0.00000000
          0.00000000
          0.00000000
          0.00000000
          0.00000000
          0.00000000
          0.00000000
          0.00000000
          0.00000000
          0.00000000
          0.00000000
          0.00000000
          0.00000000
          0.00000000
          0.00000000
          0.00000000
          0.00000000
          0.00000000
          0.00000000
          0.00000000
          0.00000000
          0.00000000
          0.00000000
          0.00000000
          0.00000000
          0.00000000
          0.00000000
          0.00000000
          0.00000000
          0.00000000
          0.00000000
          0.00000000
          0.00000000
          0.00000000
          0.00000000
          0.00000000
          0.00000000
          0.00000000
          0.00000000
          0.00000000
          0.00000000
          0.00000000
          0.00000000
          0.00000000
          0.00000000
          0.00000000
          0.00000000
          0.00000000
          0.00000000
          0.00000000
          0.00000000
          0.00000000
          0.00000000
          0.00000000
          0.00000000
          0.00000000
          0.00000000
          0.00000000
          0.00000000
          0.00000000
          0.00000000
          0.00000000
          0.00000000
          0.00000000
          0.00000000
          0.00000000
          0.00000000
          0.00000000
          0.00000000
          0.00000000
          0.00000000
          0.00000000
          0.00000000
          0.00000000
          0.00000000
          0.00000000
          0.00000000
          0.00000000
          0.00000000
          0.00000000
          0.00000000
          0.00000000
          0.00000000
          0.00000000
          0.00000000
          0.00000000
          0.00000000
          0.00000000
          0.00000000
          0.00000000
          0.00000000
          0.00000000
          0.00000000
          0.00000000
          0.00000000
          0.00000000
          0.00000000
          0.00000000
          0.00000000
          0.00000000
          0.00000000
          0.00000000
          0.00000000
          0.00000000
          0.00000000
          0.00000000
          0.00000000
          0.00000000
          0.00000000
          0.00000000
          0.00000000
          0.00000000
          0.00000000
          0.00000000
          0.00000000
          0.00000000
          0.00000000
          0.00000000
          0.00000000
          0.00000000
          0.00000000
          0.00000000
          0.00000000
          0.00000000
          0.00000000
          0.00000000
          0.00000000
          0.00000000
          0.00000000
          0.00000000
          0.00000000
          0.00000000
          0.00000000
          0.00000000
          0.00000000
          0.00000000
          0.00000000
          0.00000000
          0.00000000
          0.00000000
          0.00000000
          0.00000000
          0.00000000
          0.00000000
          0.00000000
          0.00000000
          0.00000000
          0.00000000
          0.00000000
          0.00000000
          0.00000000
          0.00000000
          0.00000000
          0.00000000
          0.00000000
          0.00000000
          0.00000000
          0.00000000
          0.00000000
          0.00000000
          0.00000000
          0.00000000
          0.00000000
          0.00000000
          0.00000000
          0.00000000
          0.00000000
          0.00000000
          0.00000000
          0.00000000
          0.00000000
          0.00000000
          0.00000000
          0.00000000
          0.00000000
          0.00000000
          0.00000000
          0.00000000
          0.00000000
          0.00000000
          0.00000000
          0.00000000
          0.00000000
          0.00000000
          0.00000000
          0.00000000
          0.00000000
          0.00000000
          0.00000000
          0.00000000
          0.00000000
          0.00000000
          0.00000000
          0.00000000
          0.00000000
          0.00000000
          0.00000000
          0.00000000
          0.00000000
          0.00000000
          0.00000000
          0.00000000
          0.00000000
          0.00000000
          0.00000000
          0.00000000
          0.00000000
          0.00000000
          0.00000000
          0.00000000
          0.00000000
          0.00000000
          0.00000000
          0.00000000
          0.00000000
          0.00000000
          0.00000000
          0.00000000
          0.00000000
          0.00000000
          0.00000000
          0.00000000
          0.00000000
          0.00000000
          0.00000000
          0.00000000
          0.00000000
          0.00000000
          0.00000000
          0.00000000
          0.00000000
          0.00000000
          0.00000000
          0.00000000
          0.00000000
          0.00000000
          0.00000000
          0.00000000
          0.00000000
          0.00000000
          0.00000000
          0.00000000
          0.00000000
          0.00000000
          0.00000000
          0.00000000
          0.00000000
          0.00000000
          0.00000000
          0.00000000
          0.00000000
          0.00000000
          0.00000000
          0.00000000
          0.00000000
          0.00000000
          0.00000000
          0.00000000
          0.00000000
          0.00000000
          0.00000000
          0.00000000
          0.00000000
          0.00000000
          0.00000000
          0.00000000
          0.00000000
     466289.76724096
     543272.89121055
     292924.78454125
    1000000.00000000
     606662.45894384
     394544.32708260
     225705.61297939
     232152.91119305
     416100.61352343
     260108.97671919
      63312.12101445
     421075.49226489
     300103.93779726
     482429.04126360
     604396.25312621
     534060.29486478
     549021.79198800
     370239.78174406
     835492.79845370
     335429.99654603
      56149.49620179
     487060.81809071
     340980.54992673
     409123.81404115
     507873.01160313
     294901.29185612
     261727.28433642
     154652.87510204
     163963.11300904
     231210.05512117
     408846.99286016
     361460.77423261
     103854.70870384
      40231.87255688
     405588.20443179
     327287.93793269
     256451.37015147
     104794.79117484
     127834.17226232
      80802.31681650
     383530.00114569
     216436.35136164
     191505.29311053
     293067.74484543
      75747.62565324
     291562.45663708
     421740.05392505
     501459.33080751
     285685.18359885
      91702.87523305
     128423.47149885
      75302.40202698
     115468.67782363
     148017.35807976
      45532.50539074
     633784.05606107
      68793.63569549
     109753.38856387
      68518.18963206
      69707.42070774
     115502.18300697
      95713.36478923
     341904.04305922
     122373.39704226
     124505.44865520
      80209.80674558
     211417.14374868
     338695.62704133
      89016.13775258
      80384.18362358
     282966.29368149
     156424.94093884
     192442.48179074
      39012.76027459
     339864.53123251
      56450.84144812
     163595.89687080
     142215.03464870
     249429.30913891
     745910.12087134
     450504.83684389
     129377.92384212
     115236.92873386
     160091.35123712
      51955.23555432
     105425.05699766
      53464.84090014
     231371.76990589
      92339.15255760
     404895.37277114
     139117.34303958
     126083.42029754
      96670.32142773
     105417.83715166
      64150.63217635
     155113.40161198
     165798.11322422
     217224.94482446
     155927.91548110
     252287.05144811
      75224.42499066
     106795.61400202
      81928.36414766
      64808.09448274
      55707.22413962
     220542.91156598
     203117.29834076
     102663.55105143
      70163.66615655
      50184.56501077
     115298.35769880
     207446.12152332
      66894.44344879
      29510.61892083
     218945.03003623
     133895.48413033
     239395.42885327
      83043.33646530
      62162.75281821
     270776.53611567
     260172.53961573
      48601.60571961
     483830.22978056
     201404.01738770
     229724.44127862
      60225.43024377
     110488.76509106
     161260.51083917
     408142.15616674
      75317.33921176
      67949.90189310
     234055.56238354
      45113.30009246
     277784.11828178
     249557.01746874
     115013.46800396
     242161.87089633
     100857.27255381
      89530.78630975
      34607.34958669
     343727.20869439
      79535.66788165
      39779.24286364
     222586.61350202
      35485.76109197
      69066.60424263
     197106.54331313
      35535.45896722
      54924.00104532
      43420.70165193
      54186.80460134
      53249.07330524
     162954.55224193
      48325.83239663
      31218.60087415
      37693.38681490
      62388.36199869
      66257.15037314
     243300.60445579
     267740.13818544
      35381.06421388
     218825.10174660
     163544.92085950
      78837.56916663
      56108.96202515
     597601.03325226
      42858.65496476
      39792.17197503
     237013.27259112
     144111.21323848
     141511.72684392
     132095.94894342
      80163.60701530
     243121.84629134
     670290.68663569
     206556.08756695
     704399.06762998
     238115.48237738
      40451.45865704
     319509.39141741
     189064.32729435
      13522.87514969
      12137.94392920
      20523.37403823
      13241.43419918
      38743.67198412
      29645.60120691
      11460.98151645
       9182.39998736
       7713.32397263
      27878.31450324
      32038.46772122
      10114.33978144
       9220.71197099
      17018.19403046
      27252.10756693
      10040.15147965
      17004.21622447
      14449.44063009
      28383.98085990
      25393.69893502
      29998.42045683
      27887.05285148
      28750.14105448
      28925.57063559
       2220.51611390
      23519.32474371
      21868.52747740
      23571.29928328
      22501.42669816
      25525.96214130
      22199.52564801
      31048.57877477
      30835.18483349
      21677.38094828
      21983.00761657
      27437.06280561
      23850.91070790
      26659.63562962
      29101.86484258
      24667.29716147
      27077.22070839
      25595.94958591
      23173.79700513
      23147.72261547
      34425.21019983
      28188.59655378
        680.46104440
      27934.72979442
      28608.08496499
      27786.58488307
      25304.16273860
      27042.92935515
      19902.96710426
      21677.38094828
      47358.44237651
      27169.00793502
      25914.75982310
      27298.64049740
      23869.54044612
      46106.19564952
      49950.45069062
      22990.95931906
      25947.53808626
      29243.27182004
      28233.27692768
      24239.68084776
      25395.45795179
      37703.03102468
      30215.75312531
      32436.63673972
      23729.22678942
      26431.98210818
      26885.26393418
      25433.00181838
      25244.42040006
      19902.96710426
      22281.68186245
      32931.32605382
      31900.33600101
      26648.71421219
      25421.91210449
      17637.14466604
      16319.45774578
      16039.38880998
       8473.23061259
      12782.48146955
      21670.02801878
      16075.08749911
      15753.09513445
      11326.34552413
       2965.85044604
      19000.14377277
      19440.43707837
      19000.14377277
      18448.82156269
      22753.76462167
      22753.76462167
       8532.53607287
      11393.08065823
      23558.76700798
      15861.71062905
      15822.70749258
      13141.03709125
       9736.33066106
      18406.57419465
      18612.70855397
      15616.29418707
      15412.60737519
      23857.45330900
      23545.05164545
      16733.55423938
      16733.55423938
      22568.24057201
      27275.76128573
      20667.07740737
      10936.79478585
      13965.35602148
      19375.84690005
      21424.65802532
      21982.77911749
      19245.44425783
      27175.88633268
      25917.94286273
      25917.94286273
      18505.46215696
      18962.34222543
      18962.34222543
      15674.69317634
      15511.37661691
      15511.37661691
       2507.86339492
       5599.50148706
       1518.81006819
       2487.27959595
       2090.37027098
       3210.76291011
       6543.20389797
       3435.65517502

