# vtk DataFile Version 3.0
Test pressure on teddy with hydroelastic modulus 1e6 Pascals
ASCII

DATASET UNSTRUCTURED_GRID
POINTS 335 double
 -0.35110059   0.18137895   0.43459845
 -0.34532255   0.12186533   0.34743726
 -0.34216294   0.20965686   0.35381222
 -0.33242810   0.08019476   0.42254895
 -0.33124948   0.52337724   0.14307070
 -0.32834080   0.11259806   0.25533178
 -0.32529825   0.53656691   0.24372268
 -0.32516119   0.17134389   0.18050072
 -0.32502949   0.18451397   0.26960620
 -0.32438967   0.45743698   0.30780899
 -0.32420093   0.28570479   0.40315944
 -0.32394385   0.42832381   0.20169498
 -0.32363328   0.53165615   0.03371000
 -0.32106325   0.42689469   0.08054148
 -0.31821147   0.14800470   0.09890267
 -0.31726819   0.23110309   0.09885550
 -0.30484384   0.44022229  -0.04342172
 -0.30445671   0.04632862   0.33916572
 -0.30437389   0.27038434   0.45805052
 -0.30261955   0.16382439   0.00437081
 -0.30175155   0.25682950   0.19604222
 -0.29846466   0.07311782   0.16562328
 -0.29541519   0.53693610   0.33836079
 -0.29470068   0.28418884   0.02159709
 -0.29096403   0.51564211  -0.07496607
 -0.29008406   0.23038116  -0.06171644
 -0.28201947   0.59362525   0.00203236
 -0.27992463   0.19932663   0.46594170
 -0.27877057   0.31070465   0.10641132
 -0.27638832   0.03190494   0.25568146
 -0.27637315   0.06813670   0.05777087
 -0.27538565   0.40034920   0.27613360
 -0.27303731   0.27630880   0.29510593
 -0.27196536   0.39338312   0.16689962
 -0.27006725   0.36542976  -0.10882288
 -0.26975363   0.29849049  -0.06199601
 -0.26941276   0.14499223  -0.10481401
 -0.26929438   0.44811681   0.38048226
 -0.26918903   0.59648848   0.10973718
 -0.26318893   0.25450230  -0.15851420
 -0.25640733   0.43878937  -0.14860024
 -0.25272229   0.58914697   0.19928604
 -0.25232977   0.58016664   0.27032083
 -0.24814108   0.06305392  -0.03511329
 -0.24556583   0.12747556   0.46074337
 -0.24428125   0.35289520   0.00386479
 -0.24420056   0.02659164   0.42919651
 -0.23881620   0.77191961  -0.02227929
 -0.23798916   0.31107315   0.19916889
 -0.23789817   0.02794865   0.12111899
 -0.23786226   0.59044075  -0.09591210
 -0.23737478   0.82674360   0.03487985
 -0.23606875   0.35674453  -0.20418498
 -0.22932841   0.61271113   0.08491389
 -0.22634044   0.69869638  -0.04456071
 -0.22363636   0.70752913   0.07314210
 -0.22180554   0.30966300   0.46155518
 -0.21935140   0.93206263   0.02434384
 -0.21762872   0.52276093  -0.16870093
 -0.21649188   0.01750460   0.31343082
 -0.21606350   0.01235798   0.20908462
 -0.21408138   0.86626285  -0.07051197
 -0.21296729   0.30199760   0.36630613
 -0.21210571   0.15543020  -0.19899355
 -0.20952454   0.36463916   0.09980165
 -0.20938915   0.75926191  -0.11485562
 -0.20760661   0.88787174   0.08681473
 -0.20435306   0.22835603   0.47590426
 -0.20067307   0.80735129   0.13507773
 -0.20022188   0.39615172   0.20993485
 -0.19910693   0.06829590  -0.13366431
 -0.19908913   0.63043123  -0.00364365
 -0.19812949   0.48892891   0.39616418
 -0.19724391   1.02371609   0.02783165
 -0.19421314   0.55399525   0.32351273
 -0.19267696   0.95782417  -0.04152877
 -0.18714349   0.26302645  -0.24945922
 -0.18441281   0.44774929  -0.23175421
 -0.17844468   0.72102773   0.16580567
 -0.17756887   0.01303235   0.04324571
 -0.17284448   0.26113468   0.28310180
 -0.17235279   0.57541764   0.17221849
 -0.17125651   0.63860214  -0.11602370
 -0.17045541   0.56184405   0.25366616
 -0.16910545   0.41801125   0.30843661
 -0.16753492   0.97215265   0.03291892
 -0.16497144   0.01791905  -0.05501836
 -0.17331646   0.58195341  -0.16189200
 -0.16270716   0.85168022  -0.16301182
 -0.15678571   0.27880815   0.41123664
 -0.15378919   0.61004829   0.08908074
 -0.14654040   0.73482186  -0.18907289
 -0.14485483   0.09018269   0.44956613
 -0.14462979   0.36172083  -0.27797037
 -0.14334582   0.94506782  -0.11453281
 -0.14264736   0.50634271   0.32185480
 -0.14220487   0.31491709   0.18955778
 -0.14194270   0.05527275   0.36649579
 -0.14125454   0.42900443   0.18460479
 -0.13806018   0.16275480   0.46529290
 -0.13768671   0.66770107   0.16357398
 -0.13636151   0.88251942   0.16299278
 -0.13571902   0.24413632   0.36433658
 -0.13519989   0.02190280   0.15160468
 -0.13496260   0.17110895  -0.27252564
 -0.13401374   0.08430851  -0.21429218
 -0.13217729   0.80130374   0.17976368
 -0.13168861   0.23091480   0.45043078
 -0.13062498   0.50460166   0.24332395
 -0.12874690   1.01771092  -0.04891741
 -0.12808816   0.56400812   0.12906291
 -0.12201357   0.53920943  -0.23439877
 -0.12083284   0.96138245   0.12545922
 -0.11419679   0.21463771   0.30923805
 -0.11161558   0.50293767   0.17750640
 -0.10984896   0.05513612   0.25433832
 -0.10758029   1.03159881   0.03897561
 -0.10399138   0.10297663   0.31691858
 -0.10263206   0.14903599   0.37834820
 -0.10162380   0.76146096   0.21973528
 -0.09817304   0.26859921  -0.30092701
 -0.09698907   0.02201335  -0.12873823
 -0.08898129   0.02695428   0.08927463
 -0.08775511   0.24365574   0.22553465
 -0.08270462   0.00517616  -0.01048632
 -0.08270178   0.63637805  -0.19224545
 -0.08024055   0.92992794  -0.17900716
 -0.07387844   0.15803596   0.26825169
 -0.07026795   0.45010176  -0.29211402
 -0.06898358   0.82341683  -0.22951409
 -0.06522833   0.68277937   0.23816094
 -0.06076218   0.72173870  -0.22552341
 -0.05989092   0.09432399   0.15738562
 -0.05986021   0.08328651  -0.28847173
 -0.05616292   0.18274729  -0.32078516
 -0.05504362   0.99875915  -0.10837173
 -0.05438370   0.35636098  -0.31226885
 -0.05298236   0.60198009   0.13942853
 -0.05289081   0.36681125   0.21771742
 -0.05102389   0.92079675   0.19424194
 -0.04626364   0.53118616   0.17216951
 -0.04396029   0.45582384   0.20528461
 -0.03886473   1.00066508   0.10445729
 -0.03417745   0.27115861   0.21899119
 -0.03407675   0.04755354  -0.21011163
 -0.03106447   0.18479320   0.19491778
 -0.02593170   0.84336877   0.21145241
 -0.02407789   0.52983695  -0.26327619
 -0.02097661   1.02607989  -0.02835067
 -0.01736744   0.60406899  -0.22052389
 -0.00532536   0.97194958   0.16015656
 -0.00381372   0.11224608  -0.34034568
 -0.00375437   0.90589488  -0.20783919
 -0.00276656   0.76631939   0.29364493
  0.00076059   0.03045164   0.06094060
  0.00107854   1.01852250   0.04864684
  0.00227219   0.97526521  -0.15847585
  0.00294779   0.01726855  -0.06355026
  0.00353942   0.62402963   0.22061599
  0.00497415   0.27667552  -0.32462958
  0.00789632   0.75366628  -0.23838814
  0.00574169   0.03106544  -0.14695833
  0.02052816   0.67290216  -0.21797825
  0.02435172   0.68605644   0.26677030
  0.02463659   0.55286586   0.15678057
  0.02842448   0.06534106  -0.28009075
  0.03019546   0.11076291   0.14584507
  0.03299904   0.18003967  -0.33882543
  0.03300501   0.39038789  -0.31190821
  0.03841430   0.49485981   0.19122972
  0.03853517   0.41269317   0.21556449
  0.04327698   0.82846475  -0.23386855
  0.04362600   0.32483262   0.21941230
  0.04731900   0.48472309  -0.28696975
  0.05180018   0.15346503   0.19699791
  0.05743967   0.56092836  -0.24278908
  0.05980262   1.00359809  -0.09701750
  0.06054753   0.60338479   0.13694872
  0.06451030   0.23453441   0.21586014
  0.06483254   0.92235273   0.19249004
  0.06665078   0.81630808   0.20967598
  0.07079045   0.99032253   0.11273744
  0.07560588   0.66405410   0.21440031
  0.07618937   0.05246901  -0.20335116
  0.08153360   0.00773968   0.00426557
  0.08243924   0.18297751   0.27601206
  0.08536267   0.92557961  -0.18142280
  0.08614835   0.75762731   0.23311588
  0.08754341   1.03094828   0.00959960
  0.09075733   0.09972367   0.29437912
  0.09093594   0.63749200  -0.19578464
  0.09345848   0.06073485   0.19982991
  0.09547583   0.32329071  -0.30182621
  0.09591699   0.03213674   0.11088477
  0.09909815   0.23095703  -0.29879427
  0.10069478   0.11369835  -0.27473023
  0.10482243   0.73948050  -0.20925105
  0.10606980   0.18857683   0.36857232
  0.10928533   0.01806946  -0.10996628
  0.11181195   0.37051278   0.19854297
  0.11827923   0.53293937   0.15661553
  0.11889732   0.09298767   0.38160312
  0.12659274   0.44896173   0.18924156
  0.12776928   0.51771208   0.23328634
  0.12867819   0.11913995   0.44687754
  0.13057205   0.82558507  -0.19819799
  0.13236238   0.29659241   0.20120917
  0.13471368   0.97982174   0.06238679
  0.13651282   0.94176650   0.12690890
  0.13832809   0.67709696   0.16896227
  0.13983089   0.21714672   0.46112624
  0.14028183   0.58491778  -0.18948486
  0.14040601   0.50979328  -0.23825362
  0.14209250   0.26286504   0.40845376
  0.14346549   0.94858646  -0.10705598
  0.14376785   0.24958923   0.29082915
  0.14572231   0.40788457  -0.26808789
  0.14621083   1.00560296  -0.05159708
  0.14786291   0.43296707   0.27225357
  0.15905082   0.54099381   0.31574455
  0.16063133   0.60527068   0.08514957
  0.16193868   0.01204153   0.06142562
  0.16330165   0.69501299  -0.15816152
  0.16564839   0.86054140   0.14662668
  0.16754623   0.63300651  -0.11064965
  0.16774114   0.01667817  -0.03715062
  0.16891873   0.76476157   0.17549239
  0.17043027   0.01833643   0.25013959
  0.17332256   0.01917760   0.16104123
  0.17446454   0.08955133  -0.18902817
  0.17485686   0.29540008  -0.26245645
  0.17565408   0.87727904  -0.13689722
  0.17713839   0.28311824   0.36465108
  0.17786719   0.03146996   0.34980378
  0.18035559   0.57362539   0.20516643
  0.18124893   0.18690085  -0.24035636
  0.18158950   0.46165666   0.38880080
  0.18495074   0.77747816  -0.15156639
  0.18978031   0.05503849   0.44754675
  0.18994083   0.30000234   0.45858476
  0.19246275   0.15141244   0.46840966
  0.19154021   1.02196968   0.01884173
  0.19679028   0.91958284   0.07871633
  0.19742376   0.36118847   0.12040165
  0.19905281   0.29619932   0.21956946
  0.20245494   0.63710773  -0.01148693
  0.20915425   0.55595428  -0.15760922
  0.21310376   0.69210392   0.09634430
  0.21391350   0.93031037   0.02821433
  0.21474758   0.91595858  -0.03890446
  0.21504253   0.71428901  -0.09137840
  0.22233966   0.38605851   0.19040041
[...]
POINT_DATA 335
SCALARS pressure double 1
LOOKUP_TABLE default
          0.00000000
          0.00000000
          0.00000000
          0.00000000
          0.00000000
          0.00000000
          0.00000000
          0.00000000
          0.00000000
          0.00000000
          0.00000000
          0.00000000
          0.00000000
          0.00000000
          0.00000000
          0.00000000
          0.00000000
          0.00000000
          0.00000000
          0.00000000
          0.00000000
          0.00000000
          0.00000000
          0.00000000
          0.00000000
          0.00000000
          0.00000000
          0.00000000
          0.00000000
          0.00000000
          0.00000000
          0.00000000
          0.00000000
          0.00000000
          0.00000000
          0.00000000
          0.00000000
          0.00000000
          0.00000000
          0.00000000
          0.00000000
          0.00000000
          0.00000000
          0.00000000
          0.00000000
          0.00000000
          0.00000000
          0.00000000
          0.00000000
          0.00000000
          0.00000000
          0.00000000
          0.00000000
          0.00000000
          0.00000000
          0.00000000
          0.00000000
          0.00000000
          0.00000000
          0.00000000
          0.00000000
          0.00000000
          0.00000000
          0.00000000
          0.00000000
          0.00000000
          0.00000000
          0.00000000
          0.00000000
          0.00000000
          0.00000000
          0.00000000
          0.00000000
          0.00000000
          0.00000000
          0.00000000
          0.00000000
          0.00000000
          0.00000000
          0.00000000
          0.00000000
          0.00000000
          0.00000000
          0.00000000
          0.00000000
          0.00000000
          0.00000000
          0.00000000
          0.00000000
          0.00000000
          0.00000000
          0.00000000
          0.00000000
          0.00000000
          0.00000000
          0.00000000
          0.00000000
          0.00000000
          0.00000000
          0.00000000
          0.00000000
          0.00000000
          0.00000000
          0.00000000
          0.00000000
          0.00000000
          0.00000000
          0.00000000
          0.00000000
          0.00000000
          0.00000000
          0.00000000
          0.00000000
          0.00000000
          0.00000000
          0.00000000
          0.00000000
          0.00000000
          0.00000000
          0.00000000
          0.00000000
          0.00000000
          0.00000000
          0.00000000
          0.00000000
          0.00000000
          0.00000000
          0.00000000
          0.00000000
          0.00000000
          0.00000000
          0.00000000
          0.00000000
          0.00000000
          0.00000000
          0.00000000
          0.00000000
          0.00000000
          0.00000000
          0.00000000
          0.00000000
          0.00000000
          0.00000000
          0.00000000
          0.00000000
          0.00000000
          0.00000000
          0.00000000
          0.00000000
          0.00000000
          0.00000000
          0.00000000
          0.00000000
          0.00000000
          0.00000000
          0.00000000
          0.00000000
          0.00000000
          0.00000000
          0.00000000
          0.00000000
          0.00000000
          0.00000000
          0.00000000
          0.00000000
          0.00000000
          0.00000000
          0.00000000
          0.00000000
          0.00000000
          0.00000000
          0.00000000
          0.00000000
          0.00000000
          0.00000000
          0.00000000
          0.00000000
          0.00000000
          0.00000000
          0.00000000
          0.00000000
          0.00000000
          0.00000000
          0.00000000
          0.00000000
          0.00000000
          0.00000000
          0.00000000
          0.00000000
          0.00000000
          0.00000000
          0.00000000
          0.00000000
          0.00000000
          0.00000000
          0.00000000
          0.00000000
          0.00000000
          0.00000000
          0.00000000
          0.00000000
          0.00000000
          0.00000000
          0.00000000
          0.00000000
          0.00000000
          0.00000000
          0.00000000
          0.00000000
          0.00000000
          0.00000000
          0.00000000
          0.00000000
          0.00000000
          0.00000000
          0.00000000
          0.00000000
          0.00000000
          0.00000000
          0.00000000
          0.00000000
          0.00000000
          0.00000000
          0.00000000
          0.00000000
          0.00000000
          0.00000000
          0.00000000
          0.00000000
          0.00000000
          0.00000000
          0.00000000
          0.00000000
          0.00000000
          0.00000000
          0.00000000
          0.00000000
          0.00000000
          0.00000000
          0.00000000
          0.00000000
          0.00000000
          0.00000000
          0.00000000
          0.00000000
          0.00000000
          0.00000000
          0.00000000
          0.00000000
          0.00000000
          0.00000000
          0.00000000
          0.00000000
          0.00000000
          0.00000000
          0.00000000
          0.00000000
          0.00000000
          0.00000000
          0.00000000
          0.00000000
          0.00000000
          0.00000000
          0.00000000
          0.00000000
          0.00000000
          0.00000000
          0.00000000
          0.00000000
          0.00000000
          0.00000000
          0.00000000
          0.00000000
          0.00000000
          0.00000000
          0.00000000
          0.00000000
          0.00000000
          0.00000000
          0.00000000
          0.00000000
          0.00000000
          0.00000000
          0.00000000
          0.00000000
          0.00000000
          0.00000000
          0.00000000
          0.00000000
          0.00000000
          0.00000000
          0.00000000
          0.00000000
          0.00000000
          0.00000000
          0.00000000
          0.00000000
          0.00000000
          0.00000000
          0.00000000
          0.00000000
          0.00000000
          0.00000000
          0.00000000
          0.00000000
          0.00000000
          0.00000000
          0.00000000
          0.00000000
          0.00000000
          0.00000000
          0.00000000
     540822.50372869
     737480.13290528
     444760.91590259
     817832.34476834
     847842.26636912
     874911.45131272
     806886.12270720
     638051.41820701
    1000000.00000000
     810051.68033234
     799490.76070014
     872941.85478239
     846542.06120002
     906249.14450982
     726587.07347075
     979249.72317747
     784934.12147875
     833580.08775779
     785749.13009079
     635121.79005201
     567239.27116972
     586527.92057190
     663945.24103807

