# vtk DataFile Version 3.0
Optimized EmbeddedSignedDistanceField
ASCII

DATASET UNSTRUCTURED_GRID
POINTS 167 double
 -0.03010430  -0.03016445   0.02080333
 -0.02258973  -0.02244560   0.03251767
 -0.02106711  -0.03485680   0.01728622
 -0.02812811  -0.02793291   0.01281976
 -0.03572933  -0.02103957   0.01806311
 -0.03848706  -0.02287166   0.03259866
 -0.03207575  -0.03080657   0.03223384
 -0.02370511  -0.03780583   0.03143061
 -0.02272058  -0.02297058   0.04873816
 -0.03734240  -0.02255712   0.04834272
 -0.03094770  -0.03163501   0.04664882
 -0.02298233  -0.03815284   0.04790756
 -0.02729754  -0.02742172   0.06739462
 -0.03121693  -0.01896508   0.00720684
 -0.02282604  -0.00773803   0.01661805
 -0.02182737  -0.02211938   0.00260905
 -0.02437656  -0.00880011  -0.00137471
 -0.03251202  -0.00758583   0.00614946
 -0.03811682  -0.00836695   0.01677007
 -0.02414001  -0.00789212   0.03204220
 -0.04308328  -0.00885351   0.03140254
 -0.02441847  -0.00796759   0.04866695
 -0.04257862  -0.00861412   0.04877375
 -0.02392957  -0.00950517   0.06448999
 -0.03975416  -0.00902137   0.06498166
 -0.03505498  -0.02081455   0.06266326
 -0.02618286  -0.00871826   0.07871154
 -0.02291655   0.00806019   0.01648877
 -0.02290924   0.00774894   0.00048172
 -0.03134731   0.00542135   0.00669992
 -0.03843168   0.00707614   0.01620554
 -0.02459897   0.00808887   0.03161977
 -0.04343444   0.00843400   0.03136644
 -0.02582114   0.00810446   0.04763105
 -0.04343691   0.00842826   0.04898287
 -0.02665767   0.00778256   0.06653512
 -0.03939337   0.00685810   0.05958457
 -0.02437441   0.00288066   0.07406097
 -0.02620135   0.02598209   0.01395492
 -0.02443688   0.02399365   0.03174745
 -0.03566075   0.01983168   0.01914163
 -0.03920034   0.02280545   0.03282426
 -0.02538926   0.02350153   0.04612505
 -0.03921701   0.02428558   0.04727850
 -0.02502657   0.02293914   0.06157004
 -0.02408362   0.03830407   0.03234078
 -0.02494811   0.03891139   0.04846285
 -0.02365052   0.03669505   0.05502477
 -0.02038435  -0.02915669   0.00828398
 -0.00717300  -0.02299269   0.01671168
 -0.00417043  -0.03431283   0.00582231
 -0.00659647  -0.02460944  -0.00050509
 -0.00726082  -0.03896100   0.01650577
 -0.00769416  -0.02425572   0.03211042
 -0.00857600  -0.04338783   0.03157890
 -0.00774660  -0.02493723   0.04873791
 -0.00892651  -0.04464146   0.04906308
 -0.00790348  -0.02522525   0.06572753
 -0.02057248  -0.03639143   0.06339017
 -0.00840215  -0.04113677   0.06595790
 -0.00853037  -0.02565946   0.08186711
 -0.00785119  -0.00827643   0.01527454
 -0.00909137  -0.00914139  -0.00295150
 -0.00812420  -0.00837504   0.03167432
 -0.00786915  -0.00812377   0.04875491
 -0.00762127  -0.00955704   0.06547906
 -0.00837030  -0.01073965   0.08154131
 -0.00796287   0.00800735   0.01494928
 -0.00894139   0.00873725  -0.00463769
 -0.00801697   0.00813158   0.03140696
 -0.00841666   0.00837017   0.04745916
 -0.00834686   0.00871839   0.06591292
 -0.00240637  -0.00196869   0.07860075
 -0.00791983   0.02369580   0.01616734
 -0.00854978   0.02163703   0.00166707
 -0.02010625   0.01987962   0.00401112
 -0.00824984   0.02487735   0.03144976
 -0.00870148   0.02414491   0.04574179
 -0.01120246   0.02566838   0.05969339
 -0.00844216   0.03583463   0.01926075
 -0.00882153   0.04204960   0.03197240
 -0.00958632   0.04178189   0.04758686
 -0.01115748   0.03443609   0.05493068
  0.00897979  -0.02385139   0.01608668
  0.00658693  -0.03475751   0.00491039
  0.00862254  -0.02624551  -0.00290084
  0.00739299  -0.03949646   0.01560619
  0.00858147  -0.02489580   0.03211561
  0.00853127  -0.04331542   0.03151271
  0.00855565  -0.02624189   0.04876692
  0.00882193  -0.04436285   0.04906840
  0.00850665  -0.02596188   0.06565186
  0.00831498  -0.04063901   0.06574984
  0.00883916  -0.02589100   0.08228132
  0.00864317  -0.00852555   0.01490033
  0.00865162  -0.00954791  -0.00293550
  0.00869665  -0.00843610   0.03177411
  0.00841953  -0.00884236   0.04838755
  0.00834488  -0.00940328   0.06524509
  0.00884823  -0.00900250   0.08486878
  0.00828611   0.00786141   0.01432540
  0.00888814   0.00858264  -0.00389535
  0.00833990   0.00766646   0.03121554
  0.00844987   0.00788563   0.04774680
  0.00857524   0.00964228   0.06694736
  0.01027370   0.00439772   0.08095226
  0.00813743   0.02342259   0.01570780
  0.00919445   0.02170798   0.00196572
  0.00812844   0.02410111   0.03139563
  0.00859203   0.02337713   0.04633913
  0.00892392   0.02544731   0.05933435
  0.00896514   0.03633514   0.01929188
  0.00880104   0.04265800   0.03191591
  0.00876627   0.04260735   0.04847418
  0.00988452   0.03736321   0.05502940
  0.02656163  -0.02675860   0.01353052
  0.02413681  -0.02424540   0.03215195
  0.01896198  -0.03621775   0.01686792
  0.02188711  -0.03795870   0.03243637
  0.02428019  -0.02508447   0.04887637
  0.02265570  -0.03887307   0.04935308
  0.02858341  -0.02926646   0.06778335
  0.02087955  -0.03671214   0.06436941
  0.02242565  -0.02195014   0.07852938
  0.02437662  -0.00848992   0.01531248
  0.01989286  -0.02332489   0.00160026
  0.02431921  -0.00727336   0.00047638
  0.02560949  -0.00851973   0.03178171
  0.02511669  -0.00884707   0.04840293
  0.02390365  -0.00994265   0.06405345
  0.02426726  -0.00881181   0.08160917
  0.02404534   0.00781623   0.01514952
  0.02406875   0.00812435  -0.00105705
  0.02492402   0.00766127   0.03150656
  0.02490751   0.00725370   0.04776122
  0.02357707   0.00624179   0.06264261
  0.02324885   0.00473452   0.07851754
  0.02633719   0.02600393   0.01386073
  0.02352834   0.02274076   0.03153705
  0.02374895   0.02173130   0.04661490
  0.02616895   0.02466141   0.06507601
  0.02377454   0.01911686   0.07075894
  0.02025552   0.03456157   0.02009192
  0.02332699   0.03894118   0.03286821
  0.02389050   0.03873731   0.04739365
  0.02738863   0.02998728   0.05914659
  0.03655128  -0.02257081   0.03382680
  0.03803904  -0.02278341   0.04903522
  0.03515643  -0.02154015   0.06466854
  0.03674032  -0.00739431   0.01691405
  0.04176764  -0.00856314   0.03170546
  0.04349097  -0.00880250   0.04897042
  0.04011556  -0.00829602   0.06508355
  0.03470971  -0.00775489   0.07334116
  0.03710152   0.00774749   0.01660997
  0.04275958   0.00852159   0.03175949
  0.04479492   0.00870304   0.04906248
  0.04081275   0.00805753   0.06528917
  0.03374992   0.00190584   0.07437213
  0.03368214   0.02113403   0.01872469
  0.03907590   0.02373747   0.03261361
  0.04033243   0.02389197   0.04795550
  0.03832991   0.01991735   0.06139327
  0.03379741   0.01831892   0.06879582
  0.03255823   0.03332905   0.03507387
  0.03555901   0.03092131   0.04720289
  0.03272305   0.02989713   0.05565591

CELLS 568 2840
4      0      1      2      3
4      0      1      3      4
4      0      1      4      5
4      0      1      5      6
4      0      1      6      7
4      0      1      7      2
4      6      8      7      1
4      6      8      1      5
4      6      8      5      9
4      6      8      9     10
4      6      8     10     11
4      6      8     11      7
4     10     12     11      8
4     10     12      8      9
4     13     14     15     16
4     13     14     16     17
4     13     14     17     18
4     13     14     18      4
4     13     14      4      3
4     13     14      3     15
4      4     19      3     14
4      4     19     14     18
4      4     19     18     20
4      4     19     20      5
4      4     19      5      1
4      4     19      1      3
4      5     21      1     19
4      5     21     19     20
4      5     21     20     22
4      5     21     22      9
4      5     21      9      8
4      5     21      8      1
4      9     23      8     21
4      9     23     21     22
4      9     23     22     24
4      9     23     24     25
4      9     23     25     12
4      9     23     12      8
4     25     26     12     23
4     25     26     23     24
4     17     27     16     28
4     17     27     28     29
4     17     27     29     30
4     17     27     30     18
4     17     27     18     14
4     17     27     14     16
4     18     31     14     27
4     18     31     27     30
4     18     31     30     32
4     18     31     32     20
4     18     31     20     19
4     18     31     19     14
4     20     33     19     31
4     20     33     31     32
4     20     33     32     34
4     20     33     34     22
4     20     33     22     21
4     20     33     21     19
4     22     35     21     33
4     22     35     33     34
4     22     35     34     36
4     22     35     36     24
4     22     35     24     23
4     22     35     23     21
4     24     37     23     35
4     24     37     26     23
4     29     38     30     27
4     29     38     27     28
4     30     39     27     38
4     30     39     38     40
4     30     39     40     41
4     30     39     41     32
4     30     39     32     31
4     30     39     31     27
4     32     42     31     39
4     32     42     39     41
4     32     42     41     43
4     32     42     43     34
4     32     42     34     33
4     32     42     33     31
4     34     44     33     42
4     34     44     42     43
4     34     44     35     33
4     40     45     41     39
4     40     45     39     38
4     41     46     39     45
4     41     46     43     42
4     41     46     42     39
4     43     47     42     46
4     43     47     44     42
4     48     49     50     51
4     48     49     51     15
4     48     49     15      3
4     48     49      3      2
4     48     49      2     52
4     48     49     52     50
4      2     53     52     49
4      2     53     49      3
4      2     53      3      1
4      2     53      1      7
4      2     53      7     54
4      2     53     54     52
4      7     55     54     53
4      7     55     53      1
4      7     55      1      8
4      7     55      8     11
4      7     55     11     56
4      7     55     56     54
4     11     57     56     55
4     11     57     55      8
4     11     57      8     12
4     11     57     12     58
4     11     57     58     59
4     11     57     59     56
4     58     60     59     57
4     58     60     57     12
4     15     61     51     62
4     15     61     62     16
4     15     61     16     14
4     15     61     14      3
4     15     61      3     49
4     15     61     49     51
4      3     63     49     61
4      3     63     61     14
4      3     63     14     19
4      3     63     19      1
4      3     63      1     53
4      3     63     53     49
4      1     64     53     63
4      1     64     63     19
4      1     64     19     21
4      1     64     21      8
4      1     64      8     55
4      1     64     55     53
4      8     65     55     64
4      8     65     64     21
4      8     65     21     23
4      8     65     23     12
4      8     65     12     57
4      8     65     57     55
4     12     66     57     65
4     12     66     65     23
4     12     66     23     26
4     12     66     60     57
4     16     67     62     68
4     16     67     68     28
4     16     67     28     27
4     16     67     27     14
4     16     67     14     61
4     16     67     61     62
4     14     69     61     67
4     14     69     67     27
4     14     69     27     31
4     14     69     31     19
4     14     69     19     63
4     14     69     63     61
4     19     70     63     69
4     19     70     69     31
4     19     70     31     33
4     19     70     33     21
4     19     70     21     64
4     19     70     64     63
4     21     71     64     70
4     21     71     70     33
4     21     71     33     35
4     21     71     35     23
4     21     71     23     65
4     21     71     65     64
4     23     72     65     71
4     23     72     71     35
4     23     72     35     37
4     23     72     37     26
4     23     72     26     66
4     23     72     66     65
4     28     73     68     74
4     28     73     74     75
4     28     73     75     38
4     28     73     38     27
4     28     73     27     67
4     28     73     67     68
4     27     76     67     73
4     27     76     73     38
4     27     76     38     39
4     27     76     39     31
4     27     76     31     69
4     27     76     69     67
4     31     77     69     76
4     31     77     76     39
4     31     77     39     42
4     31     77     42     33
4     31     77     33     70
4     31     77     70     69
4     33     78     70     77
4     33     78     77     42
4     33     78     42     44
4     33     78     44     35
4     33     78     35     71
4     33     78     71     70
4     75     79     38     73
4     75     79     73     74
4     38     80     73     79
4     38     80     45     39
4     38     80     39     76
4     38     80     76     73
4     39     81     76     80
4     39     81     80     45
4     39     81     45     46
4     39     81     46     42
4     39     81     42     77
4     39     81     77     76
4     42     82     77     81
4     42     82     81     46
4     42     82     46     47
4     42     82     47     44
4     42     82     44     78
4     42     82     78     77
4     50     83     84     85
4     50     83     85     51
4     50     83     51     49
4     50     83     49     52
4     50     83     52     86
4     50     83     86     84
4     52     87     86     83
4     52     87     83     49
4     52     87     49     53
4     52     87     53     54
4     52     87     54     88
4     52     87     88     86
4     54     89     88     87
4     54     89     87     53
4     54     89     53     55
4     54     89     55     56
4     54     89     56     90
4     54     89     90     88
4     56     91     90     89
4     56     91     89     55
4     56     91     55     57
4     56     91     57     59
4     56     91     59     92
4     56     91     92     90
4     59     93     92     91
4     59     93     91     57
4     59     93     57     60
4     51     94     85     95
4     51     94     95     62
4     51     94     62     61
4     51     94     61     49
4     51     94     49     83
4     51     94     83     85
4     49     96     83     94
4     49     96     94     61
4     49     96     61     63
4     49     96     63     53
4     49     96     53     87
4     49     96     87     83
4     53     97     87     96
4     53     97     96     63
4     53     97     63     64
4     53     97     64     55
4     53     97     55     89
4     53     97     89     87
4     55     98     89     97
4     55     98     97     64
4     55     98     64     65
4     55     98     65     57
4     55     98     57     91
4     55     98     91     89
4     57     99     91     98
4     57     99     98     65
4     57     99     65     66
4     57     99     66     60
4     57     99     60     93
4     57     99     93     91
4     62    100     95    101
4     62    100    101     68
4     62    100     68     67
4     62    100     67     61
4     62    100     61     94
4     62    100     94     95
4     61    102     94    100
4     61    102    100     67
4     61    102     67     69
4     61    102     69     63
4     61    102     63     96
4     61    102     96     94
4     63    103     96    102
4     63    103    102     69
4     63    103     69     70
4     63    103     70     64
4     63    103     64     97
4     63    103     97     96
4     64    104     97    103
4     64    104    103     70
4     64    104     70     71
4     64    104     71     65
4     64    104     65     98
4     64    104     98     97
4     65    105     98    104
4     65    105    104     71
4     65    105     71     72
4     65    105     72     66
4     65    105     66     99
4     65    105     99     98
4     68    106    101    107
4     68    106    107     74
4     68    106     74     73
4     68    106     73     67
4     68    106     67    100
4     68    106    100    101
4     67    108    100    106
4     67    108    106     73
4     67    108     73     76
4     67    108     76     69
4     67    108     69    102
4     67    108    102    100
4     69    109    102    108
4     69    109    108     76
4     69    109     76     77
4     69    109     77     70
4     69    109     70    103
4     69    109    103    102
4     70    110    103    109
4     70    110    109     77
4     70    110     77     78
4     70    110     78     71
4     70    110     71    104
4     70    110    104    103
4     74    111     79     73
4     74    111     73    106
4     74    111    106    107
4     73    112    106    111
4     73    112    111     79
4     73    112     79     80
4     73    112     80     76
4     73    112     76    108
4     73    112    108    106
4     76    113    108    112
4     76    113    112     80
4     76    113     80     81
4     76    113     81     77
4     76    113     77    109
4     76    113    109    108
4     77    114    109    113
4     77    114    113     81
4     77    114     81     82
4     77    114     82     78
4     77    114     78    110
4     77    114    110    109
4     84    115     85     83
4     84    115     83     86
4     86    116    117    115
4     86    116    115     83
4     86    116     83     87
4     86    116     87     88
4     86    116     88    118
4     86    116    118    117
4     88    119    118    116
4     88    119    116     87
4     88    119     87     89
4     88    119     89     90
4     88    119     90    120
4     88    119    120    118
4     90    121    120    119
4     90    121    119     89
4     90    121     89     91
4     90    121     91     92
4     90    121     92    122
4     90    121    122    120
4     92    123    121     91
4     92    123     91     93
4     85    124    125    126
4     85    124    126     95
4     85    124     95     94
4     85    124     94     83
4     85    124     83    115
4     85    124    115    125
4     83    127    115    124
4     83    127    124     94
4     83    127     94     96
4     83    127     96     87
4     83    127     87    116
4     83    127    116    115
4     87    128    116    127
4     87    128    127     96
4     87    128     96     97
4     87    128     97     89
4     87    128     89    119
4     87    128    119    116
4     89    129    119    128
4     89    129    128     97
4     89    129     97     98
4     89    129     98     91
4     89    129     91    121
4     89    129    121    119
4     91    130    121    129
4     91    130    129     98
4     91    130     98     99
4     91    130     99     93
4     91    130     93    123
4     91    130    123    121
4     95    131    126    132
4     95    131    132    101
4     95    131    101    100
4     95    131    100     94
4     95    131     94    124
4     95    131    124    126
4     94    133    124    131
4     94    133    131    100
4     94    133    100    102
4     94    133    102     96
4     94    133     96    127
4     94    133    127    124
4     96    134    127    133
4     96    134    133    102
4     96    134    102    103
4     96    134    103     97
4     96    134     97    128
4     96    134    128    127
4     97    135    128    134
4     97    135    134    103
4     97    135    103    104
4     97    135    104     98
4     97    135     98    129
4     97    135    129    128
4     98    136    129    135
4     98    136    135    104
4     98    136    104    105
4     98    136    105     99
4     98    136     99    130
4     98    136    130    129
4    101    137    107    106
4    101    137    106    100
4    101    137    100    131
4    101    137    131    132
4    100    138    131    137
4    100    138    137    106
4    100    138    106    108
4    100    138    108    102
4    100    138    102    133
4    100    138    133    131
4    102    139    133    138
4    102    139    138    108
4    102    139    108    109
4    102    139    109    103
4    102    139    103    134
4    102    139    134    133
4    103    140    134    139
4    103    140    139    109
4    103    140    109    110
4    103    140    110    104
4    103    140    104    135
4    103    140    135    134
4    104    141    135    140
4    104    141    136    135
4    107    142    111    106
4    107    142    106    137
4    106    143    137    142
4    106    143    142    111
4    106    143    111    112
4    106    143    112    108
4    106    143    108    138
4    106    143    138    137
4    108    144    138    143
4    108    144    143    112
4    108    144    112    113
4    108    144    113    109
4    108    144    109    139
4    108    144    139    138
4    109    145    139    144
4    109    145    144    113
4    109    145    113    114
4    109    145    114    110
4    109    145    110    140
4    109    145    140    139
4    117    146    115    116
4    117    146    116    118
4    118    147    146    116
4    118    147    116    119
4    118    147    119    120
4    120    148    147    119
4    120    148    119    121
4    125    149    126    124
4    125    149    124    115
4    115    150    149    124
4    115    150    124    127
4    115    150    127    116
4    115    150    116    146
4    116    151    146    150
4    116    151    150    127
4    116    151    127    128
4    116    151    128    119
4    116    151    119    147
4    116    151    147    146
4    119    152    147    151
4    119    152    151    128
4    119    152    128    129
4    119    152    129    121
4    119    152    121    148
4    119    152    148    147
4    121    153    152    129
4    121    153    129    130
4    126    154    132    131
4    126    154    131    124
4    126    154    124    149
4    124    155    149    154
4    124    155    154    131
4    124    155    131    133
4    124    155    133    127
4    124    155    127    150
4    124    155    150    149
4    127    156    150    155
4    127    156    155    133
4    127    156    133    134
4    127    156    134    128
4    127    156    128    151
4    127    156    151    150
4    128    157    151    156
4    128    157    156    134
4    128    157    134    135
4    128    157    135    129
4    128    157    129    152
4    128    157    152    151
4    129    158    152    157
4    129    158    157    135
4    129    158    135    136
4    129    158    136    130
4    129    158    130    153
4    129    158    153    152
4    132    159    137    131
4    132    159    131    154
4    131    160    154    159
4    131    160    159    137
4    131    160    137    138
4    131    160    138    133
4    131    160    133    155
4    131    160    155    154
4    133    161    155    160
4    133    161    160    138
4    133    161    138    139
4    133    161    139    134
4    133    161    134    156
4    133    161    156    155
4    134    162    156    161
4    134    162    161    139
4    134    162    139    140
4    134    162    140    135
4    134    162    135    157
4    134    162    157    156
4    135    163    157    162
4    135    163    162    140
4    135    163    140    141
4    135    163    141    136
4    135    163    136    158
4    135    163    158    157
4    137    164    143    138
4    137    164    138    160
4    138    165    160    164
4    138    165    164    143
4    138    165    143    144
4    138    165    144    139
4    138    165    139    161
4    138    165    161    160
4    139    166    161    165
4    139    166    165    144
4    139    166    144    145
4    139    166    145    140
4    139    166    140    162
4    139    166    162    161

CELL_TYPES 568
10
10
10
10
10
10
10
10
10
10
10
10
10
10
10
10
10
10
10
10
10
10
10
10
10
10
10
10
10
10
10
10
10
10
10
10
10
10
10
10
10
10
10
10
10
10
10
10
10
10
10
10
10
10
10
10
10
10
10
10
10
10
10
10
10
10
10
10
10
10
10
10
10
10
10
10
10
10
10
10
10
10
10
10
10
10
10
10
10
10
10
10
10
10
10
10
10
10
10
10
10
10
10
10
10
10
10
10
10
10
10
10
10
10
10
10
10
10
10
10
10
10
10
10
10
10
10
10
10
10
10
10
10
10
10
10
10
10
10
10
10
10
10
10
10
10
10
10
10
10
10
10
10
10
10
10
10
10
10
10
10
10
10
10
10
10
10
10
10
10
10
10
10
10
10
10
10
10
10
10
10
10
10
10
10
10
10
10
10
10
10
10
10
10
10
10
10
10
10
10
10
10
10
10
10
10
10
10
10
10
10
10
10
10
10
10
10
10
10
10
10
10
10
10
10
10
10
10
10
10
10
10
10
10
10
10
10
10
10
10
10
10
10
10
10
10
10
10
10
10
10
10
10
10
10
10
10
10
10
10
10
10
10
10
10
10
10
10
10
10
10
10
10
10
10
10
10
10
10
10
10
10
10
10
10
10
10
10
10
10
10
10
10
10
10
10
10
10
10
10
10
10
10
10
10
10
10
10
10
10
10
10
10
10
10
10
10
10
10
10
10
10
10
10
10
10
10
10
10
10
10
10
10
10
10
10
10
10
10
10
10
10
10
10
10
10
10
10
10
10
10
10
10
10
10
10
10
10
10
10
10
10
10
10
10
10
10
10
10
10
10
10
10
10
10
10
10
10
10
10
10
10
10
10
10
10
10
10
10
10
10
10
10
10
10
10
10
10
10
10
10
10
10
10
10
10
10
10
10
10
10
10
10
10
10
10
10
10
10
10
10
10
10
10
10
10
10
10
10
10
10
10
10
10
10
10
10
10
10
10
10
10
10
10
10
10
10
10
10
10
10
10
10
10
10
10
10
10
10
10
10
10
10
10
10
10
10
10
10
10
10
10
10
10
10
10
10
10
10
10
10
10
10
10
10
10
10
10
10
10
10
10
10
10
10
10
10
10
10
10
10
10
10
10
10
10
10
10
10
10
10
10
10
10
10
10
10
10
10
10
10
10
10
10
10
10
10
10
10
10
10
10
10
10
10
10
10
10
10
10
10
10
10
10
10
10
10
10
10
10
10
10
10
10
10
10
10
10
10
10
10
10
10
10
10
10
10
10

POINT_DATA 167
SCALARS SignedDistance(meters) double 1
LOOKUP_TABLE default
          0.00501713
         -0.00752881
          0.00500936
          0.00499837
          0.00500901
          0.00500571
          0.00501468
          0.00500581
         -0.00654968
          0.00500654
          0.00501494
          0.00500590
          0.00499912
          0.00501524
         -0.00845312
          0.00500763
          0.00500291
          0.00501263
          0.00500563
         -0.01314847
          0.00500102
         -0.01257232
          0.00500147
         -0.00749300
          0.00500395
          0.00500941
          0.00500473
         -0.00693578
          0.00500485
          0.00501381
          0.00500533
         -0.01301040
          0.00500075
         -0.01171130
          0.00500075
          0.00500075
          0.00500716
          0.00500977
          0.00500057
         -0.00559337
          0.00500977
          0.00500515
         -0.00601971
          0.00500464
          0.00500518
          0.00500512
          0.00500438
          0.00501138
          0.00501657
         -0.00803251
          0.00501203
          0.00500390
          0.00500517
         -0.01295439
          0.00500093
         -0.01390912
          0.00499986
         -0.00789011
          0.00500852
          0.00500279
          0.00500238
         -0.01275539
          0.00500105
         -0.02689682
         -0.01427477
         -0.00547686
          0.00500283
         -0.01382539
          0.00499968
         -0.02373997
         -0.00862678
          0.00500086
          0.00501104
         -0.00311561
          0.00500606
          0.00500987
         -0.01052634
         -0.00711434
          0.00500603
          0.00500804
          0.00500172
          0.00500227
          0.00501238
         -0.00878041
          0.00501081
          0.00500116
          0.00500446
         -0.01259964
          0.00500098
         -0.01288169
          0.00500009
         -0.00750771
          0.00500321
          0.00500199
         -0.01198499
          0.00500113
         -0.02417020
         -0.01742646
         -0.01142502
          0.00499979
         -0.01217921
          0.00500029
         -0.02373237
         -0.00815279
          0.00499919
          0.00500463
         -0.00313234
          0.00500621
         -0.01178712
         -0.00814114
          0.00500604
          0.00500772
          0.00500125
          0.00500128
          0.00501089
          0.00500001
         -0.00334526
          0.00500936
          0.00500647
         -0.00511072
          0.00500546
          0.00499733
          0.00500794
          0.00500702
         -0.00446674
          0.00500760
          0.00500441
         -0.00990409
         -0.01242048
         -0.00788046
          0.00500303
         -0.00585346
          0.00500326
         -0.01153720
         -0.01491712
         -0.00681118
          0.00500637
          0.00500044
         -0.00718743
         -0.00762448
          0.00500199
          0.00501269
          0.00501053
          0.00500502
          0.00500497
          0.00501285
          0.00500732
          0.00500592
          0.00500858
          0.00500674
          0.00500208
          0.00500068
          0.00500367
          0.00501186
          0.00500629
          0.00500129
          0.00499960
          0.00500308
          0.00501292
          0.00501033
          0.00500479
          0.00500384
          0.00500826
          0.00501647
          0.00501307
          0.00501271
          0.00501714

