# vtk DataFile Version 3.0
EmbeddedSignedDistanceField
ASCII

DATASET UNSTRUCTURED_GRID
POINTS 528 double
 -0.02143830  -0.04300730   0.02704370
 -0.02143830  -0.04416030   0.03523320
 -0.02363110  -0.04300730   0.03523320
 -0.02143830  -0.04479450   0.04513350
 -0.02468650  -0.04300730   0.04513350
 -0.02143830  -0.04367310   0.05503390
 -0.02252090  -0.04300730   0.05503390
 -0.02143830  -0.04300730   0.05818760
 -0.01072950  -0.04300730   0.01503070
 -0.01072950  -0.04321730   0.01543250
 -0.01134620  -0.04300730   0.01543250
 -0.01072950  -0.04645610   0.02533280
 -0.02075690  -0.04300730   0.02533280
 -0.01072950  -0.04868280   0.03523320
 -0.01072950  -0.04920820   0.04513350
 -0.01072950  -0.04852690   0.05503390
 -0.01831540  -0.04300730   0.06493430
 -0.01072950  -0.04607410   0.06493430
 -0.01072950  -0.04300730   0.07162420
 -0.00002070  -0.04300730   0.01013110
 -0.00002070  -0.04533910   0.01543250
 -0.00002070  -0.04813570   0.02533280
 -0.00002070  -0.05011810   0.03523320
 -0.00002070  -0.05026130   0.04513350
 -0.00002070  -0.04987420   0.05503390
 -0.00002070  -0.04713280   0.06493430
 -0.00002070  -0.04300730   0.07426180
  0.01068800  -0.04300730   0.01286670
  0.01068800  -0.04406970   0.01543250
  0.01068800  -0.04685020   0.02533280
  0.01068800  -0.04865320   0.03523320
  0.01068800  -0.04911650   0.04513350
  0.01068800  -0.04870390   0.05503390
  0.01068800  -0.04578360   0.06493430
  0.01068800  -0.04300730   0.07225500
  0.01404780  -0.04300730   0.01543250
  0.02139680  -0.04300730   0.02438500
  0.02139680  -0.04325370   0.02533280
  0.02139680  -0.04487210   0.03523320
  0.02139680  -0.04549260   0.04513350
  0.02139680  -0.04549830   0.05503390
  0.02139680  -0.04300730   0.06347290
  0.02010510  -0.04300730   0.06493430
  0.02176220  -0.04300730   0.02533280
  0.02418010  -0.04300730   0.03523320
  0.02514800  -0.04300730   0.04513350
  0.02505590  -0.04300730   0.05503390
 -0.03214700  -0.03230290   0.01446840
 -0.03214700  -0.03279180   0.01543250
 -0.03265560  -0.03230290   0.01543250
 -0.03214700  -0.03681800   0.02533280
 -0.03651570  -0.03230290   0.02533280
 -0.03214700  -0.03761110   0.03523320
 -0.03747550  -0.03230290   0.03523320
 -0.03214700  -0.03786460   0.04513350
 -0.03713580  -0.03230290   0.04513350
 -0.03214700  -0.03601350   0.05503390
 -0.03566360  -0.03230290   0.05503390
 -0.03214700  -0.03242500   0.06493430
 -0.03225130  -0.03230290   0.06493430
 -0.03214700  -0.03230290   0.06509420
 -0.02143830  -0.03230290   0.00449600
 -0.02143830  -0.03321880   0.00553210
 -0.02319190  -0.03230290   0.00553210
 -0.02143830  -0.03950290   0.01543250
 -0.02143830  -0.04276670   0.02533280
 -0.02143830  -0.04136910   0.06493430
 -0.02377370  -0.03230290   0.07483460
 -0.02143830  -0.03438580   0.07483460
 -0.02143830  -0.03230290   0.07697150
 -0.01072950  -0.03230290   0.00042750
 -0.01072950  -0.03729230   0.00553210
 -0.01072950  -0.04116450   0.07483460
 -0.01072950  -0.03230290   0.08419860
 -0.00002070  -0.03230290  -0.00430550
 -0.00002070  -0.04077950   0.00553210
 -0.00002070  -0.04266630   0.07483460
 -0.00423500  -0.03230290   0.08473500
 -0.00002070  -0.03266500   0.08473500
 -0.00002070  -0.03230290   0.08500310
  0.01068800  -0.03230290  -0.00405700
  0.01068800  -0.03978770   0.00553210
  0.01068800  -0.04163520   0.07483460
  0.01068800  -0.03230290   0.08340940
  0.00212610  -0.03230290   0.08473500
  0.02139680  -0.03230290   0.00159290
  0.02139680  -0.03549750   0.00553210
  0.02139680  -0.04007980   0.01543250
  0.02139680  -0.04253440   0.06493430
  0.02139680  -0.03708940   0.07483460
  0.02139680  -0.03230290   0.07855740
  0.02461880  -0.03230290   0.00553210
  0.02981440  -0.03230290   0.01543250
  0.03210560  -0.03230290   0.02066530
  0.03210560  -0.03419850   0.02533280
  0.03210560  -0.03681180   0.03523320
  0.03210560  -0.03784660   0.04513350
  0.03210560  -0.03773050   0.05503390
  0.03210560  -0.03419910   0.06493430
  0.03210560  -0.03230290   0.06841960
  0.02679970  -0.03230290   0.07483460
  0.03369770  -0.03230290   0.02533280
  0.03619000  -0.03230290   0.03523320
  0.03729020  -0.03230290   0.04513350
  0.03707970  -0.03230290   0.05503390
  0.03395290  -0.03230290   0.06493430
 -0.04285580  -0.02159850   0.02379350
 -0.04285580  -0.02242160   0.02533280
 -0.04330580  -0.02159850   0.02533280
 -0.04285580  -0.02563330   0.03523320
 -0.04537370  -0.02159850   0.03523320
 -0.04285580  -0.02412340   0.04513350
 -0.04433320  -0.02159850   0.04513350
 -0.04285580  -0.02159850   0.05450750
 -0.03214700  -0.02159850   0.00262010
 -0.03214700  -0.02561140   0.00553210
 -0.03480380  -0.02159850   0.00553210
 -0.04002880  -0.02159850   0.01543250
 -0.04276760  -0.02159850   0.05503390
 -0.03986320  -0.02159850   0.06493430
 -0.03214700  -0.02398500   0.07483460
 -0.03407240  -0.02159850   0.07483460
 -0.03214700  -0.02159850   0.07644070
 -0.02143830  -0.02159850  -0.00444420
 -0.02143830  -0.02171900  -0.00436830
 -0.02157830  -0.02159850  -0.00436830
 -0.02143830  -0.02159850   0.08216670
 -0.01072950  -0.02159850  -0.00632990
 -0.01072950  -0.02524240  -0.00436830
 -0.01739440  -0.02159850   0.08473500
 -0.01072950  -0.03123320   0.08473500
 -0.01072950  -0.02159850   0.08845850
 -0.00002070  -0.02159850  -0.00940590
 -0.00002070  -0.03220470  -0.00436830
 -0.00002070  -0.02159850   0.08889560
  0.01068800  -0.02159850  -0.00876990
  0.01068800  -0.03181450  -0.00436830
  0.01068800  -0.03010560   0.08473500
  0.01068800  -0.02159850   0.08865700
  0.02074060  -0.02159850  -0.00436830
  0.02139680  -0.02159850  -0.00398270
  0.02139680  -0.02309460   0.08473500
  0.02139680  -0.02159850   0.08554060
  0.02989620  -0.02159850   0.00553210
  0.03210560  -0.02873430   0.01543250
  0.03210560  -0.02159850   0.00923470
  0.03210560  -0.02639420   0.07483460
  0.03210560  -0.02159850   0.07829750
  0.02304530  -0.02159850   0.08473500
  0.03585450  -0.02159850   0.01543250
  0.04001460  -0.02159850   0.02533280
  0.04281430  -0.02170880   0.03523320
  0.04281430  -0.02159850   0.03500290
  0.04281430  -0.02392060   0.04513350
  0.04281430  -0.02241760   0.05503390
  0.04281430  -0.02159850   0.05699840
  0.04092870  -0.02159850   0.06493430
  0.03482840  -0.02159850   0.07483460
  0.04287740  -0.02159850   0.03523320
  0.04419470  -0.02159850   0.04513350
  0.04326250  -0.02159850   0.05503390
 -0.04285580  -0.01089410   0.01570260
 -0.04615490  -0.01089410   0.02533280
 -0.04784220  -0.01089410   0.03523320
 -0.04770220  -0.01089410   0.04513350
 -0.04285580  -0.02136350   0.05503390
 -0.04637200  -0.01089410   0.05503390
 -0.04285580  -0.01597190   0.06493430
 -0.04506590  -0.01089410   0.06493430
 -0.04285580  -0.01089410   0.06876680
 -0.03214700  -0.01089410  -0.00059890
 -0.03735260  -0.01089410   0.00553210
 -0.04275810  -0.01089410   0.01543250
 -0.03819760  -0.01089410   0.07483460
 -0.03214700  -0.01089410   0.08075790
 -0.02143830  -0.01089410  -0.00732150
 -0.02699280  -0.01089410  -0.00436830
 -0.02143830  -0.01089410   0.08358740
 -0.01072950  -0.01089410  -0.00830200
 -0.01730170  -0.01089410   0.08473500
 -0.01072950  -0.01089410   0.08682480
 -0.00002070  -0.01089410  -0.00839500
 -0.00002070  -0.01089410   0.08874500
  0.01068800  -0.01089410  -0.00840760
  0.01068800  -0.01089410   0.09021260
  0.02139680  -0.01883860  -0.00436830
  0.02139680  -0.01089410  -0.00529710
  0.02139680  -0.01089410   0.08875800
  0.02328980  -0.01089410  -0.00436830
  0.03210560  -0.01089410   0.00170770
  0.03210560  -0.01697510   0.00553210
  0.03210560  -0.01089410   0.08165610
  0.02797530  -0.01089410   0.08473500
  0.03520340  -0.01089410   0.00553210
  0.04053900  -0.01089410   0.01543250
  0.04281430  -0.01519430   0.02533280
  0.04281430  -0.01089410   0.02088940
  0.04281430  -0.01705430   0.06493430
  0.04281430  -0.01089410   0.06927640
  0.03910450  -0.01089410   0.07483460
  0.04455300  -0.01089410   0.02533280
  0.04704170  -0.01089410   0.03523320
  0.04835780  -0.01089410   0.04513350
  0.04737570  -0.01089410   0.05503390
  0.04520110  -0.01089410   0.06493430
 -0.04285580  -0.00018970   0.01388020
 -0.04285580  -0.00988270   0.01543250
 -0.04376350  -0.00018970   0.01543250
 -0.04800570  -0.00018970   0.02533280
 -0.04957190  -0.00018970   0.03523320
 -0.04929400  -0.00018970   0.04513350
 -0.04745540  -0.00018970   0.05503390
 -0.04408530  -0.00018970   0.06493430
 -0.04285580  -0.00018970   0.06863340
 -0.03214700  -0.00018970   0.00027640
 -0.03724650  -0.00018970   0.00553210
 -0.03918820  -0.00018970   0.07483460
 -0.03214700  -0.00018970   0.07921830
 -0.02143830  -0.00018970  -0.00654810
 -0.02537500  -0.00018970  -0.00436830
 -0.02143830  -0.00018970   0.08157970
 -0.01072950  -0.00018970  -0.00918460
 -0.01072950  -0.00719590   0.08473500
 -0.01072950  -0.00018970   0.07899190
 -0.00002070  -0.00018970  -0.00709910
 -0.00253570  -0.00018970   0.08473500
 -0.00002070  -0.00018970   0.08589740
  0.01068800  -0.00018970  -0.00964640
  0.01068800  -0.00018970   0.08837930
  0.02139680  -0.00018970  -0.00849270
  0.02139680  -0.00018970   0.08686110
  0.02889360  -0.00018970  -0.00436830
  0.03210560  -0.00018970  -0.00170850
  0.03210560  -0.00018970   0.08191490
  0.02614990  -0.00018970   0.08473500
  0.03764290  -0.00018970   0.00553210
  0.04253300  -0.00018970   0.01543250
  0.04281430  -0.00018970   0.01617840
  0.04281430  -0.00018970   0.07142150
  0.04044730  -0.00018970   0.07483460
  0.04617470  -0.00018970   0.02533280
  0.04873580  -0.00018970   0.03523320
  0.05014190  -0.00018970   0.04513350
  0.04969080  -0.00018970   0.05503390
  0.04644900  -0.00018970   0.06493430
 -0.04285580   0.00991940   0.01543250
 -0.04285580   0.01051470   0.01555420
 -0.04707550   0.01051470   0.02533280
 -0.04836640   0.01051470   0.03523320
 -0.04844360   0.01051470   0.04513350
 -0.04655300   0.01051470   0.05503390
 -0.04285580   0.00368240   0.06493430
 -0.04285580   0.01051470   0.06114850
[...]
POINT_DATA 528
SCALARS SignedDistance(meters) double 1
LOOKUP_TABLE default
          0.00973622
          0.01001514
          0.00976342
          0.01003715
          0.00981080
          0.00998723
          0.01006085
          0.00994374
          0.00999988
          0.00999399
          0.00997415
          0.00997796
          0.01006002
          0.00999999
          0.01000001
          0.00999793
          0.00956610
          0.00997321
          0.00946946
          0.01000033
          0.00999262
          0.01000072
          0.00998503
          0.01000000
          0.00999560
          0.01000001
          0.00985784
          0.01000719
          0.00999976
          0.00999696
          0.00997753
          0.00999999
          0.00995032
          0.00999998
          0.00951931
          0.00992433
          0.00991375
          0.00997882
          0.00989007
          0.00988337
          0.00985056
          0.00999996
          0.00962417
          0.00999170
          0.00999804
          0.00999321
          0.00999757
          0.00995351
          0.00994623
          0.00997759
          0.00997031
          0.00986340
          0.01000650
          0.00985381
          0.00995319
          0.00971376
          0.00993061
          0.00992840
          0.00999125
          0.00999999
          0.00998322
          0.00994349
          0.00999425
          0.00984416
          0.00978790
          0.00999271
          0.00983211
          0.00997384
          0.00993874
          0.00970378
          0.00997853
          0.00968218
          0.00997009
          0.00989582
          0.01000283
          0.00980036
          0.00999217
          0.00963396
          0.00994992
          0.00998164
          0.00999384
          0.00979525
          0.00990802
          0.01002668
          0.00992335
          0.00993305
          0.00943584
          0.00975742
          0.00999364
          0.00974384
          0.00999998
          0.00999183
          0.00984596
          0.00966601
          0.00973200
          0.00960504
          0.00981456
          0.00991042
          0.01000002
          0.00956482
          0.00998494
          0.01002586
          0.00996985
          0.00999997
          0.00991050
          0.00971441
          0.00990137
          0.00985304
          0.00999996
          0.00978842
          0.00994348
          0.01001282
          0.00990667
          0.00998056
          0.00991032
          0.00999572
          0.00966302
          0.00983020
          0.01000002
          0.00999531
          0.00980978
          0.00970519
          0.00988121
          0.00999778
          0.00998987
          0.00997075
          0.01037588
          0.00995511
          0.01006564
          0.00975260
          0.00998391
          0.00990835
          0.00995882
          0.00997363
          0.00996005
          0.00999996
          0.00985368
          0.00945676
          0.00999955
          0.00990116
          0.00996376
          0.00975450
          0.01000001
          0.01009006
          0.00995381
          0.00981934
          0.00955480
          0.00987375
          0.00987900
          0.00999092
          0.01000780
          0.00999134
          0.00997178
          0.00990216
          0.01000098
          0.00999975
          0.00999990
          0.00999999
          0.01000001
          0.00996733
          0.00998411
          0.00997219
          0.01000656
          0.00997978
          0.00997881
          0.00996943
          0.00999995
          0.00951283
          0.00994128
          0.00977532
          0.00999998
          0.00982186
          0.00999929
          0.00980378
          0.00977017
          0.00999998
          0.00927665
          0.00998042
          0.00999989
          0.01084511
          0.00993620
          0.00997005
          0.00994928
          0.00999993
          0.00998685
          0.01033947
          0.00998785
          0.00987182
          0.00995191
          0.00984515
          0.00991684
          0.00993143
          0.00986038
          0.00991359
          0.01000342
          0.00961326
          0.00993524
          0.00960687
          0.00979818
          0.00993067
          0.01000000
          0.00999995
          0.00992829
          0.00999994
          0.00999709
          0.00984148
          0.00995340
          0.00999993
          0.00993771
          0.00999221
          0.00999996
          0.00986332
          0.01001178
          0.00978890
          0.00999143
          0.00988714
          0.00916154
          0.00999781
          0.01000000
          0.00944060
          0.00988349
          0.00994599
          0.00998152
          0.00952369
          0.01008394
          0.01008124
          0.00989625
          0.00999920
          0.00999998
          0.00989179
          0.00991636
          0.00974972
          0.00984742
          0.00998602
          0.00998210
          0.00980871
          0.00999207
          0.01002385
          0.00963081
          0.00990762
          0.00992332
          0.00999996
          0.00999778
          0.01000004
          0.01002816
          0.00990679
          0.00999933
          0.00995588
          0.01000002
          0.00999999
          0.01000156
          0.00975870
          0.00926466
          0.00985173
          0.00986181
          0.00999772
          0.00999999
          0.00946191
          0.01060910
          0.00985244
          0.00991044
          0.00983084
          0.01011626
          0.00999854
          0.01025832
          0.00964656
          0.00999981
          0.01000899
          0.01108678
          0.00976916
          0.00998537
          0.00983071
          0.00933977
          0.00972307
          0.01000002
          0.00965492
          0.01000451
          0.00951278
          0.00974279
          0.01001965
          0.00995172
          0.00996869
          0.00996260
          0.00962989
          0.00953458
          0.00999897
          0.00995436
          0.01000004
          0.00993631
          0.01000004
          0.00964354
          0.00999997
          0.00999998
          0.00999927
          0.00999999
          0.00996020
          0.00946953
          0.00989424
          0.00980292
          0.00984910
          0.00999996
          0.00995800
          0.00976387
          0.01004984
          0.00998120
          0.00975744
          0.00997417
          0.01007447
          0.00957931
          0.00975642
          0.01000745
          0.00981334
          0.00997162
          0.00998353
          0.01093794
          0.00997904
          0.00981281
          0.00981956
          0.00958394
          0.00997481
          0.00986059
          0.00981003
          0.00997683
          0.00982030
          0.00981665
          0.00997207
          0.00981362
          0.00999646
          0.00997606
          0.00997658
          0.00985094
          0.00999234
          0.00969589
          0.01000002
          0.01000002
          0.00996628
          0.00975048
          0.00943012
          0.00925758
          0.00996465
          0.00998798
          0.00972111
          0.00993927
          0.01000003
          0.00993694
          0.00997649
          0.00990050
          0.00943459
          0.00990296
          0.00989732
          0.00971195
          0.00983813
          0.00999999
          0.00998482
          0.00999974
          0.00999407
          0.00984626
          0.00988738
          0.01000042
          0.00996305
          0.01087312
          0.00984973
          0.01000065
          0.00999721
          0.01071022
          0.00999374
          0.00998009
          0.00995706
          0.01000001
          0.01010390
          0.00982596
          0.00982350
          0.00988332
          0.00998069
          0.00999456
          0.00979824
          0.00995772
          0.00987195
          0.00960384
          0.00987976
          0.00986550
          0.00934051
          0.01000000
          0.00963582
          0.00973152
          0.00994844
          0.00999274
          0.00995289
          0.00997718
          0.00999868
          0.00983748
          0.00939931
          0.00949631
          0.00985724
          0.01001368
          0.00995587
          0.00989265
          0.00978951
          0.00999987
          0.00998136
          0.00999752
          0.00999371
          0.00997735
          0.00999995
          0.00971758
          0.00995540
          0.00974424
          0.00999995
          0.00991744
          0.00993994
          0.00963246
          0.00975750
          0.01000002
          0.00962871
          0.00998418
          0.00987120
          0.01000000
          0.00981604
          0.01053850
          0.00999231
          0.01000145
          0.01001215
          0.00996811
          0.00992566
          0.00996453
          0.00999999
          0.00988879
          0.00987256
          0.00992114
          0.01000002
          0.00998544
          0.00992022
          0.00983064
          0.00998858
          0.00993770
          0.00997970
          0.00847091
          0.00231753
         -0.00221392
          0.00018724
          0.00680447
          0.00003929
         -0.00534715
         -0.00208756
          0.00504513
          0.00293026
         -0.00233404
          0.00051765
          0.00720579
          0.00282414
         -0.00111569
         -0.00042425
          0.00601877
          0.00306177
         -0.01091647
         -0.01549346
         -0.01371389
         -0.00057328
          0.00238386
         -0.01347557
         -0.02107114
         -0.00643793
          0.00391430
          0.00550923
         -0.00750395
         -0.01654823
         -0.00201371
          0.00465182
         -0.00234224
          0.00362981
          0.00809592
         -0.00149190
         -0.00611953
         -0.00540278
          0.00238547
          0.00085058
         -0.01570364
         -0.02274568
         -0.01855540
         -0.00671540
          0.00319940
         -0.01455896
         -0.02152144
         -0.00620112
          0.00294484
          0.00526438
         -0.00891063
         -0.01674047
         -0.00014533
          0.00419745
         -0.00459006
          0.00481156
          0.00179869
         -0.00155625
         -0.00175997
          0.00459215
          0.00427805
         -0.00816965
         -0.01410149
         -0.01467712
         -0.00421392
          0.00094553
         -0.01418020
         -0.02121450
         -0.01178356
         -0.00398646
          0.00511447
         -0.00758317
         -0.01711002
         -0.00389845
          0.00762148
          0.00436604
         -0.00318822
          0.00402334
          0.00819410
          0.00534893
         -0.00006170
         -0.00021438
          0.00696502
          0.00104478
         -0.00465070
         -0.00561339
          0.00372412
          0.00412735
         -0.00255012
         -0.00213939
          0.00618231
          0.00821245

