# vtk DataFile Version 5.1
vtk output
ASCII
DATASET UNSTRUCTURED_GRID
POINTS 3238 double
-0.029719000682 0.0018060000148 0.043164499104 -0.029422797263 0.0029645178001 0.042401764542 -0.029086720198 0.0036111120135 0.044214650989 
-0.02952885814 0.00088978378335 0.04265190661 -0.029178528115 0.0019913769793 0.045649074018 -0.029626000673 -0.00047200001427 0.043627999723 
-0.029471971095 -0.00065416918369 0.03502561152 -0.029559999704 -0.0024874999654 0.034357499331 -0.029461000115 -0.0010920000495 0.033608999103 
-0.029148571193 -0.0016607573489 0.036488316953 -0.029390184209 -0.0026373229921 0.03555219993 -0.029191643 0.00096998695517 0.03337995708 
-0.028857002035 0.0011773157166 0.036372803152 -0.029323130846 0.0011665717466 0.034782707691 -0.02899398841 -0.0018514905823 0.043948717415 
-0.029443267733 -0.00066587544279 0.043008983135 -0.028712866828 0.00053824478528 0.047255348414 -0.028148490936 -0.0013402549084 0.04748300463 
-0.029319904745 -0.0025871561375 0.033955734223 -0.029286032543 -0.0017812805017 0.033537298441 -0.029192456976 -0.0030274856836 0.034591890872 
-0.028312243521 -0.00015996633738 0.04240488261 -0.028442865238 0.0017538078828 0.042204741389 -0.028773523867 -0.0020503797568 0.042982339859 
-0.028562903404 0.00036212443956 0.033097170293 -0.02876249887 -0.00092759705149 0.033141989261 -0.02902302146 0.0042447946034 0.042679816484 
-0.028527611867 0.0029121059924 0.041993185878 -0.028764000162 0.0038590000477 0.041838999838 -0.028584681451 -0.0032639207784 0.035930577666 
-0.028574848548 -0.0028912078124 0.037004977465 -0.028834829107 -0.0026769593824 0.033826544881 -0.028728956357 -0.0018623137148 0.033365286887 
-0.028158891946 0.002748247236 0.049113236368 -0.028599185869 0.0045421039686 0.046399280429 -0.029165500775 0.0023904999252 0.033780999482 
-0.028833843768 0.0027008075267 0.033659726381 -0.028652977198 0.0030456285458 0.03461202234 -0.028767026961 0.001965434989 0.033085279167 
-0.029066897929 0.0026692594402 0.035018734634 -0.028649574146 0.0030700510833 0.035967942327 -0.028054393828 0.0033868174069 0.036043435335 
-0.028013000265 -0.00067899998976 0.038011498749 -0.02786819078 -0.0018272371963 0.038231737912 -0.02860988304 -0.00036935749813 0.037070930004 
-0.027311455458 -0.0032928597648 0.045880459249 -0.027966635302 -0.0034635935444 0.043415103108 -0.028618000448 -0.0030789999291 0.034501999617 
-0.02724894695 -0.0032301780302 0.037805497646 -0.027795052156 -0.0033621443436 0.036702673882 -0.028245359659 0.0052747381851 0.041986789554 
-0.028180914 0.005483251065 0.043780975044 -0.028183408082 0.0028476754669 0.036889526993 -0.027957340702 0.00080525019439 0.037717740983 
-0.027553362772 0.0021069515496 0.037729680538 -0.028124799952 -0.0023443368264 0.03428369388 -0.028338000178 0.0027930000797 0.033851999789 
-0.027682280168 0.0032536028884 0.035647001117 -0.027883550152 -0.0019248614553 0.042311795056 -0.027169486508 0.0057327887043 0.041194271296 
-0.027062658221 0.0040533407591 0.041508231312 -0.02759354189 0.0028644283302 0.041833225638 -0.028129000217 -0.0010689999908 0.033420000225 
-0.027437377721 0.00091299507767 0.050862994045 -0.02816000022 0.0018850000342 0.03334800154 -0.027926586568 -0.0028219490778 0.035757515579 
-0.027670770884 0.0063793319277 0.04655393213 -0.027619922534 0.0051603461616 0.049952417612 -0.027869515121 5.7649303926e-05 0.033779907972 
-0.026970515028 0.007147367578 0.044357720762 -0.027404500172 0.0060870000161 0.041792500764 -0.028388153762 0.0006657030317 0.041061174124 
-0.028328519315 0.00083520740736 0.039704874158 -0.027927998453 0.0021804380231 0.04018131271 -0.028372010216 -0.00094275042647 0.040602538735 
-0.027932250872 0.0019347500056 0.041692249477 -0.027665941045 -0.002393765375 0.040090590715 -0.028268720955 -0.00022800717852 0.038989029825 
-0.027423722669 0.0022506006062 0.035146459937 -0.027726037428 0.0020623884629 0.038718637079 -0.027451349422 0.0032489665318 0.037223745137 
-0.027205714956 0.0028387778439 0.037755724043 -0.027516499162 -0.0012989999959 0.035685498267 -0.027304606512 0.0035851760767 0.036597404629 
-0.027637166902 0.00013661156117 0.03513456881 -0.027243368328 -0.003063473152 0.036641612649 -0.026669817045 0.0033969348297 0.03954609856 
-0.02700600028 0.0033027499449 0.041306998581 -0.025831591338 -0.0027805936988 0.05023791641 -0.026152510196 -0.0010116804624 0.05273373425 
-0.027010101825 -0.0031041218899 0.042402390391 -0.026571290568 -0.0034063740168 0.04013152793 -0.026788271964 0.0034915017895 0.053224474192 
-0.025755764917 0.0084684863687 0.048286475241 -0.02681742236 0.007078983821 0.049382161349 -0.026496922597 -0.0034383232705 0.037259966135 
-0.027065964416 0.0027775645722 0.038511712104 -0.026902219281 0.0028128235135 0.035991128534 -0.02653228119 0.003485262394 0.036643166095 
-0.0271703545 -0.0027626999654 0.038543500006 -0.026433845982 0.0064820745029 0.052314307541 -0.02571855858 0.0012456154218 0.05543929711 
-0.027112787589 0.00043844530592 0.035958040506 -0.027103159577 0.001542315702 0.035805508494 -0.026643967256 -0.00082582607865 0.036264698952 
-0.025989500806 -0.0034630000591 0.038421001285 -0.026406971738 0.0066597317345 0.041378472 -0.026207430288 0.0034418313298 0.037804860622 
-0.026187570766 -0.0030255806632 0.036856979132 -0.026130715385 -0.0022654163186 0.036659941077 -0.025688087568 0.0046089650132 0.041203390807 
-0.025569500402 0.0064037498087 0.040849499404 -0.026283204556 0.0022627203725 0.036265008152 -0.026483658701 0.00088160031009 0.036376927048 
-0.025121266022 0.004069162067 0.04064065963 -0.026337923482 -0.0044508879073 0.04281264171 -0.026209432632 -0.0044802562334 0.044766448438 
-0.025276517496 -0.0049967207015 0.043685633689 -0.024713039398 -0.0048868623562 0.04243883118 -0.025525197387 -0.0039526708424 0.04183164984 
-0.025646368042 0.0081443125382 0.051063068211 -0.025491926819 0.0083960928023 0.044760297984 -0.025114165619 -0.004243618343 0.048186354339 
-0.025383079425 0.0029771802947 0.036391396075 -0.025027995929 -0.0039676972665 0.04033408314 -0.025520067662 0.00014351405844 0.036266356707 
-0.025056762621 0.0039172465913 0.039109576494 -0.024726500735 -0.0035200000275 0.03702250123 -0.024871814996 0.0023941721302 0.036104891449 
-0.025251545012 -0.0026727390941 0.036523748189 -0.024978691712 0.0072406646796 0.041456706822 -0.024948235601 0.0077571156435 0.042526487261 
-0.025669999421 0.006434999872 0.055303998291 -0.025314321741 0.0035691261292 0.056959588081 -0.025121910498 -0.0014440553496 0.036265477538 
-0.025155000389 0.0034940000623 0.036846999079 -0.023843172938 0.0029119080864 0.036256786436 -0.024345695972 -0.0027553751133 0.053874675184 
-0.024328926578 -0.00068833329715 0.056677088141 -0.024611281231 -0.00048350932775 0.03558845073 -0.024364288896 0.00035950198071 0.03516901657 
-0.023340163752 -0.0040282271802 0.052533309907 -0.023164102808 0.0011424202239 0.059890884906 -0.024576826021 0.0050713978708 0.05833864212 
-0.025052484125 0.0079884780571 0.054336361587 -0.024339931086 0.0079475482926 0.056343834847 -0.024814100936 0.0067249760032 0.057133536786 
-0.023830672726 0.0099294856191 0.048441138119 -0.023879140615 0.0093662636355 0.045477874577 -0.023888219148 0.0087410863489 0.043598763645 
-0.024210359901 -0.005213371478 0.045630156994 -0.02378857322 -0.0041297799908 0.041351623833 -0.02441033721 0.006056915503 0.040891822428 
-0.024322468787 0.0069463718683 0.041078198701 -0.023697216064 -0.0052488842048 0.04364669323 -0.024004545063 0.0051744552329 0.041200660169 
-0.023783454672 0.0043594944291 0.041146431118 -0.024295743555 0.0093273511156 0.051538616419 -0.023548699915 0.0075839972124 0.041918843985 
-0.023694584146 0.0040074866265 0.039893470705 -0.023859590292 -0.0038931227755 0.039645291865 -0.022521924227 -0.0048796716146 0.049993712455 
-0.02288768813 -0.0049034054391 0.042131315917 -0.023817615584 0.0034595816396 0.037918746471 -0.023772070184 -0.0027539767325 0.036128349602 
-0.024328077212 -0.0015274785692 0.035426542163 -0.021647492424 -0.0011388120474 0.061321206391 -0.021778939292 -0.0026041979436 0.059331893921 
-0.021983673796 -0.0038977463264 0.056043699384 -0.0251673311 0.008301996626 0.052806541324 -0.023967698216 0.0091230235994 0.053340472281 
-0.023671403527 0.0088676093146 0.054750151932 -0.023450719193 0.0067324498668 0.041215930134 -0.023423833773 -0.0030108578503 0.037534154952 
-0.023875594139 0.0014820917277 0.035164486617 -0.023943908513 0.0067783086561 0.058787472546 -0.023082768545 0.0036178885493 0.060457460582 
-0.022879291326 0.005801177118 0.060571607202 -0.024229539558 -0.00079268723493 0.034824773669 -0.023204497993 0.0080946013331 0.058185055852 
-0.02290423587 0.0087423045188 0.056076291949 -0.023653576151 -0.0019178712973 0.035222761333 -0.02371252887 -0.0013403459452 0.034588009119 
-0.022893995047 0.005825900007 0.041547689587 -0.024033000693 -0.0002814999898 0.034149501473 -0.023663170636 0.00047267272021 0.034265577793 
-0.021457729861 -0.0051343054511 0.046867288649 -0.022541781887 -0.005316646304 0.044878058136 -0.021523270756 0.0098694507033 0.045861788094 
-0.022708941251 0.010019552894 0.046462904662 -0.022822704166 0.0015139600728 0.035229481757 -0.022601118311 0.0021561156027 0.036250405014 
-0.023906348273 -0.00080559257185 0.034367792308 -0.023590000346 -0.00049399997806 0.034042999148 -0.022684089839 0.0069167092443 0.041996344924 
-0.022682134062 -0.0035861257929 0.040074557066 -0.022454561666 -0.003062853124 0.038563493639 -0.022457636893 0.010361890309 0.050905823708 
-0.023214807734 0.0096846250817 0.052467528731 -0.022569505498 0.0038014322054 0.040731474757 -0.022464377806 0.004493420478 0.0417448394 
-0.022405233234 -0.0017483267002 0.037164118141 -0.02268525213 -0.0016558254138 0.036047250032 -0.023173883557 -0.0019671637565 0.035535957664 
-0.02246700041 0.0075920000672 0.060139000416 -0.021994188428 -0.0049919933081 0.042942628264 -0.022881269455 0.00028595226468 0.034737516195 
[...]
POINT_DATA 3238
SCALARS SDF float
LOOKUP_TABLE default
-9.3314e-10 -0 2.32831e-10 5.82077e-11 0 -0 3.72575e-09 -0 -0 
0 -0 1.86355e-09 4.165e-09 1.16415e-10 -1.86628e-09 -2.63257e-09 -5.82077e-11 0 
-2.32831e-10 -1.16415e-10 -2.32831e-10 -2.61934e-10 5.82077e-10 0 -1.86287e-09 -3.72575e-09 4.19205e-05 
-1.86265e-09 -0 -2.32831e-10 -4.1715e-09 -4.22317e-09 1.50624e-09 1.86265e-09 1.86265e-09 -8.51691e-10 
-0.000158464 1.86265e-09 -1.98002e-05 -2.32831e-10 -0 2.32831e-10 5.82077e-11 1.16415e-10 1.88525e-09 
0 -9.33915e-05 -0 -2.0825e-09 2.32831e-10 0 -1.86265e-09 0 -0.000120934 
1.91997e-09 -3.72529e-09 -0 -9.31323e-10 -0 5.96526e-05 -4.65661e-10 4.74955e-05 -0 
-1.74623e-10 1.65049e-09 -6.98492e-10 0 -4.165e-09 1.86724e-09 -4.65661e-10 4.19095e-09 -0 
-1.86355e-09 0 -4.165e-09 -1.91997e-09 -1.91997e-09 -8.73115e-11 3.73256e-09 1.87714e-09 -2.32831e-10 
1.91997e-09 -1.87714e-09 1.26901e-09 1.86951e-09 -4.65661e-10 2.32831e-10 -3.73256e-09 6.98492e-10 3.49246e-10 
-3.73256e-09 4.1715e-09 0 -2.0825e-09 3.75428e-09 -9.31323e-10 1.87714e-09 4.165e-09 0.000298157 
1.98931e-09 -0 -4.16663e-09 1.87714e-09 1.16415e-10 -1.87714e-09 -4.65661e-10 1.91997e-09 -1.87714e-09 
-1.86265e-09 0 1.86265e-09 -3.72529e-09 0 1.06946e-09 2.26404e-10 -1.86265e-09 4.165e-09 
-1.86265e-09 1.00716e-09 4.65661e-10 1.86265e-09 -0 9.31323e-10 -6.98492e-10 1.86265e-09 7.27596e-11 
-4.65661e-10 2.32831e-10 0.000254411 -0 -4.65661e-10 4.40304e-06 0 1.03208e-09 1.8951e-09 
-0 3.73256e-09 3.79021e-09 4.1715e-09 1.86469e-09 -0.000190178 -0 -4.16663e-09 3.72529e-09 
9.31323e-10 9.31323e-10 3.75428e-09 1.86265e-09 -3.72529e-09 -0 -0 1.91997e-09 4.65661e-10 
9.31323e-10 0 3.75428e-09 2.76965e-10 0 3.75428e-09 1.91997e-09 -3.73256e-09 -2.55385e-10 
4.65661e-10 1.87714e-09 0 -1.8951e-09 3.72711e-09 -2.32831e-10 -9.97872e-05 3.72529e-09 -9.31323e-10 
2.99509e-05 -0 2.32831e-10 -1.86628e-09 -0 3.73256e-09 3.72529e-09 1.86628e-09 9.31323e-10 
-0.000109694 1.5134e-09 -2.0825e-09 -0 -2.91038e-11 1.45519e-10 1.91997e-09 -0 -0 
-9.31323e-10 2.1371e-09 -2.32831e-10 0.000100981 1.85744e-09 -0 -4.1715e-09 -3.21792e-10 3.72529e-09 
-1.70921e-05 -1.86265e-09 -0 -2.32831e-10 -9.81051e-05 2.32831e-10 0 -0 0.00022388 
-9.31323e-10 1.91997e-09 2.91038e-10 -3.74163e-09 -2.32831e-10 -3.83994e-09 -9.31323e-10 -1.91997e-09 4.165e-09 
-4.65661e-10 -0 4.17729e-09 0.000285847 -2.0825e-09 -1.86265e-09 1.86265e-09 -1.91997e-09 -1.16415e-10 
4.19095e-09 -4.65661e-10 -2.32831e-10 -9.31323e-10 0 0 -0 -0 -9.31323e-10 
0 3.36134e-10 -9.31323e-10 0 -3.83994e-09 0 -0.000241553 -0 5.82077e-11 
1.86265e-09 4.165e-09 -2.64709e-06 2.55599e-09 4.26786e-09 3.72529e-09 -0 0 9.13597e-05 
4.65661e-10 -0 1.73681e-09 -4.56253e-09 3.72529e-09 0 -4.65661e-10 -1.39698e-09 1.86265e-09 
4.65661e-10 -9.31323e-10 9.31323e-10 -1.87173e-09 -1.92724e-09 -2.02571e-05 1.17502e-09 3.74163e-09 -4.19095e-09 
3.73256e-09 -0.000248531 -1.87714e-09 -1.86628e-09 -3.72529e-09 1.63111e-09 -1.86265e-09 -7.45422e-09 5.82077e-11 
-3.75428e-09 -3.83994e-09 1.86265e-09 -3.72529e-09 -1.16415e-10 3.83994e-09 -0 0 3.56522e-10 
0 -0 -4.1715e-09 -0 -4.65661e-10 3.28352e-10 -0 -3.72529e-09 9.94193e-10 
-3.74163e-09 3.77198e-10 0.000524181 0 -3.72529e-09 9.31323e-10 -9.31323e-10 -9.31323e-10 -0.00012603 
-3.72587e-09 -1.16415e-10 -0 -0 -0 -4.65661e-10 -0 8.40589e-05 -6.98492e-10 
-2.32831e-10 0 -1.74623e-10 1.16415e-10 2.32831e-10 4.65661e-10 4.19095e-09 -9.31323e-10 -1.86265e-09 
-1.87714e-09 7.68341e-09 3.54063e-10 0 -1.86265e-09 0.000154116 -0 -0 -3.61559e-05 
0 -4.165e-09 -1.86265e-09 0.000144343 3.72529e-09 0 3.75428e-09 -8.09925e-05 -2.0825e-09 
-2.32504e-09 -3.72529e-09 -1.86265e-09 -0 -1.86832e-09 7.68077e-09 1.81899e-12 -0 -3.75428e-09 
0 -1.42192e-09 3.83994e-09 0.000170838 0 9.31323e-10 -0 -3.75428e-09 7.67988e-09 
-4.65661e-10 4.65661e-10 -0 -7.50856e-09 2.63418e-09 -3.83994e-09 3.83994e-09 3.83994e-09 -3.75428e-09 
-2.24388e-09 4.65661e-10 1.16415e-10 5.6006e-10 -1.87714e-09 4.72937e-10 0 -9.31323e-10 -2.50096e-05 
-0 -0 0 -5.80003e-06 0 -9.55511e-06 8.34261e-05 7.47018e-10 7.30869e-05 
4.65661e-10 -0 -2.32831e-10 -0 -0 4.65661e-10 3.72711e-09 -9.31323e-10 0.000194815 
9.95079e-10 2.09871e-10 5.82077e-11 8.56545e-06 -1.88075e-09 -0 1.16415e-10 -1.86628e-09 -1.74623e-10 
-2.32831e-10 -5.40263e-05 -0 0 -4.65661e-10 1.12648e-05 4.58901e-05 -9.31323e-10 1.86628e-09 
-4.79993e-10 -4.65661e-10 -1.89153e-09 0 -4.65661e-10 1.88525e-09 4.65661e-10 0 -2.32831e-10 
0 0 -0.000804153 2.32831e-10 -9.59985e-10 2.64204e-09 1.86628e-09 0 2.0825e-09 
-0 -1.879e-09 -1.16415e-10 -1.86265e-09 2.63418e-09 1.86265e-09 0 -0 9.23101e-10 
-5.82077e-11 2.52788e-05 -1.9235e-09 4.15373e-05 1.86355e-09 -7.45058e-09 7.45058e-09 0 7.68341e-09 
0 1.86265e-09 -0 -0 0 2.91038e-10 0.000120942 1.86628e-09 -4.54747e-11 
2.32831e-10 -9.31323e-10 2.32831e-10 1.86265e-09 1.86265e-09 1.91997e-09 4.65661e-10 0 -1.16415e-10 
5.20625e-10 2.32831e-10 1.87714e-09 1.91997e-09 3.70774e-05 4.65661e-10 -0 -1.91997e-09 0 
-0 1.74623e-10 1.86628e-09 -0 7.46512e-09 2.32831e-10 -2.32831e-10 -9.31323e-10 0 
-9.6202e-06 -8.24444e-05 2.32831e-10 -0 2.32831e-10 1.86265e-09 -2.32831e-10 4.65661e-10 -1.91997e-09 
9.39652e-10 -2.32831e-10 -2.32831e-10 -9.31323e-10 9.31323e-10 0 8.17628e-06 0.000303676 2.32831e-10 
6.58544e-10 0 4.65661e-10 4.86892e-10 -3.86807e-09 1.91997e-09 7.45058e-09 7.45058e-09 4.43891e-05 
-1.91997e-09 0 1.35682e-05 -2.32831e-10 -4.73776e-10 -3.03155e-10 -4.65661e-10 2.63418e-09 -9.31323e-10 
1.91997e-09 1.16415e-10 -0 4.65661e-10 -4.26786e-09 -7.67988e-09 -1.96962e-09 4.65661e-10 -1.91997e-09 
-0 1.93491e-09 -5.23869e-10 0 -0 9.21178e-10 -5.82077e-11 -0 0 
4.48992e-10 -5.55841e-05 0 -0 4.02167e-11 -4.65661e-10 0 -0 9.31323e-10 
-0 0 0.00031035 -1.74623e-10 1.92724e-09 -5.82077e-11 -0.000121933 -2.32831e-10 -9.31323e-10 
2.0825e-09 0 2.32831e-10 -1.86628e-09 -7.68077e-09 6.1934e-05 -0 -2.32831e-10 1.86265e-09 
3.72529e-09 0 2.32831e-10 -1.2417e-09 -1.86265e-09 -0 -1.91997e-09 2.32831e-10 -0 
-3.06939e-07 9.31323e-10 9.59985e-10 -0 1.91997e-09 0 -4.65661e-10 0 0 
-4.65661e-10 0 -0 4.65661e-10 -0 -1.91997e-09 7.46512e-09 -2.8115e-09 0 
1.90669e-09 9.3314e-10 5.23869e-10 -4.65661e-10 -0 0 0 2.23186e-05 0.000771888 
-4.65661e-10 6.17678e-05 -4.65661e-10 -1.86265e-09 -1.16415e-10 1.86628e-09 -9.31323e-10 0 0 
4.65661e-10 0 -0 -2.0825e-09 -9.31323e-10 -9.31323e-10 7.69399e-09 -1.04125e-09 1.86265e-09 
-4.6657e-10 4.65661e-10 0 1.86628e-09 0 0 -1.16415e-10 -2.32831e-10 -0.000155413 
-1.16415e-10 -1.86265e-09 2.32831e-10 4.65661e-10 4.65661e-10 -9.31323e-10 -3.83994e-09 1.16415e-10 0 
9.59985e-10 -0 1.04125e-09 1.86265e-09 -9.31323e-10 0 -0 -1.86355e-09 -0 
-1.86265e-09 0 -1.04125e-09 0 -4.65661e-10 -1.39698e-09 4.65661e-10 -1.04125e-09 9.31323e-10 
-5.31743e-05 0 -2.13393e-09 -1.31709e-09 -1.04125e-09 9.3314e-10 -0 -9.31323e-10 -1.16415e-10 
-1.04125e-09 2.06945e-06 3.95127e-09 9.31323e-10 -9.31323e-10 9.31323e-10 2.63418e-09 -0 2.0825e-09 
0.000156753 9.3857e-10 4.07454e-10 -0 0 1.80187e-09 -2.03311e-09 9.3857e-10 -1.04125e-09 
0 9.59985e-10 -4.65661e-10 4.65661e-10 -0 1.04125e-09 -1.74623e-10 1.04125e-09 -0 
0 1.21859e-05 4.07454e-10 0 -4.65661e-10 -9.31323e-10 -0 0 -2.64154e-05 
1.04125e-09 1.31709e-09 0 -1.04125e-09 -9.31323e-10 -1.06696e-09 1.04125e-09 -3.86807e-09 3.83994e-09 
-1.04125e-09 -1.86265e-09 -0 4.65661e-10 1.04125e-09 -9.59985e-10 0.000223722 -0 -2.13393e-09 
-4.65661e-10 -2.13869e-10 4.02405e-05 -1.49084e-09 4.04591e-05 1.04125e-09 1.02059e-09 0 4.65661e-10 
4.27304e-10 9.3857e-10 4.31741e-10 -2.32831e-10 1.86832e-09 9.59985e-10 1.86265e-09 9.3857e-10 -2.13393e-09 
-1.91997e-09 -2.13393e-09 0 2.28127e-09 -4.65661e-10 -1.04125e-09 6.58544e-10 0 -0 
0.000101597 -0 2.9451e-09 -0 -9.31323e-10 4.65661e-10 -4.65661e-10 -4.65661e-10 -1.86265e-09 
1.95581e-09 7.66252e-05 0 1.86265e-09 0 -1.16415e-10 0 7.50856e-09 7.56752e-05 
-9.31323e-10 1.04125e-09 -1.98057e-05 0 9.31323e-10 -7.45058e-09 9.31323e-10 0 6.36891e-10 
-0 -2.0825e-09 -0 6.68944e-05 -9.31323e-10 0 -0 3.49246e-10 -0 
0 -4.65661e-10 -7.5661e-09 0 -1.31709e-09 -7.58001e-05 -1.04125e-09 5.82077e-11 -1.23751e-09 
3.83994e-09 -4.65661e-10 -6.16184e-10 -1.16415e-10 -9.84811e-10 -9.3857e-10 9.31323e-10 0.00030416 -0 
9.11499e-10 -0 9.31323e-10 -0 -4.65661e-10 -9.31323e-10 -4.65661e-10 -8.14907e-10 0.000380926 
0 0 9.31323e-10 2.0825e-09 -9.31323e-10 -9.31777e-10 8.73115e-11 0 2.51378e-09 
-7.46512e-09 -9.31323e-10 -0 -7.50856e-09 -2.0825e-09 4.65661e-10 1.04125e-09 -2.0825e-09 4.20749e-10 
9.31323e-10 -0 0 -9.31323e-10 1.04125e-09 -2.41782e-10 1.04125e-09 -0 0 
5.82077e-11 -1.45519e-11 9.31323e-10 -4.65661e-10 -0 3.83994e-09 -7.62676e-09 0 7.14231e-10 
1.04125e-09 -0.000104322 1.86265e-09 -0 -0 0 -4.65661e-10 -7.5661e-09 9.31323e-10 
4.65661e-10 0 0 -9.31323e-10 9.31323e-10 -3.83994e-09 -3.63798e-11 5.82077e-11 7.45058e-09 
0 1.04125e-09 -1.30156e-10 -4.65718e-10 -0.000302785 9.31323e-10 1.31709e-09 -2.0825e-09 -1.31709e-09 
-0.000152541 -9.31323e-10 1.91997e-09 1.98931e-09 -7.63741e-09 -4.65661e-10 0 3.86807e-09 -9.31323e-10 
4.65661e-10 -4.02615e-06 -9.31323e-10 -1.91997e-09 1.04125e-09 1.88822e-09 0 0.000169818 -9.31323e-10 
1.39698e-09 1.04125e-09 -9.31323e-10 0 1.85627e-09 9.31323e-10 1.3809e-09 7.52299e-09 -9.46238e-10 
0 -0 1.31709e-09 -0 -9.61748e-10 -2.32831e-10 -9.31323e-10 0 7.45403e-05 
1.31709e-09 9.31323e-10 -1.31709e-09 1.31709e-09 0.000152568 0 -1.31709e-09 6.90884e-05 -0 
-0 1.39698e-09 -1.91997e-09 -0 9.31323e-10 1.31709e-09 0 -7.50856e-09 -0 
1.06758e-09 0 9.31323e-10 3.77624e-05 1.31709e-09 2.79431e-05 -6.26409e-10 0 7.52299e-09 
1.04125e-09 -4.65661e-10 -4.65661e-10 0 -9.31323e-10 -8.49295e-11 3.83994e-09 9.31323e-10 0 
-3.22288e-05 -2.0825e-09 -4.65661e-10 1.31709e-09 -0 0 4.65661e-10 -2.63418e-09 2.91038e-11 
0 4.65661e-10 4.65661e-10 -0 9.3857e-10 0 9.59985e-10 -4.65661e-10 -1.04125e-09 
-1.39698e-09 -9.31323e-10 1.31709e-09 3.72529e-09 -0.000541632 4.65661e-10 6.48051e-10 -0 9.31323e-10 
7.50856e-09 7.5661e-09 9.31323e-10 -2.0825e-09 9.31323e-10 9.31323e-10 9.31323e-10 -1.91997e-09 0 
7.63741e-09 2.32831e-10 -9.59985e-10 -4.65661e-10 1.31709e-09 6.52569e-10 0 -1.09749e-05 9.31777e-10 
-0 -0 9.31323e-10 -0 7.69399e-09 1.31709e-09 0 2.0825e-09 9.31323e-10 
-0 8.61082e-10 2.0825e-09 -1.31709e-09 -2.52751e-09 6.4243e-10 0 -7.97802e-05 0 
1.04125e-09 4.65661e-10 -7.40434e-10 4.65661e-10 9.31323e-10 -9.31323e-10 -1.31709e-09 -2.0825e-09 9.31323e-10 
-3.83994e-09 9.31323e-10 -9.31323e-10 0 1.04125e-09 -0 0 1.04125e-09 -2.32831e-10 
-0 9.31323e-10 -4.65661e-10 -1.04125e-09 2.13393e-09 7.5661e-09 -0 -0 -0 
-1.04125e-09 -1.04125e-09 -2.0825e-09 -8.14907e-10 -9.31323e-10 -0 -0 1.87714e-09 9.31323e-10 
1.86265e-09 9.31323e-10 0.00079287 0 -1.04125e-09 -9.31323e-10 0 2.88873e-05 -9.31323e-10 
0 -9.31323e-10 -9.31323e-10 -1.48479e-05 7.46512e-09 -8.10739e-10 -0 1.31709e-09 0 
5.59021e-05 0 9.31323e-10 -7.50856e-09 -0 4.65661e-10 1.04125e-09 9.31323e-10 4.36252e-05 
-1.67897e-09 7.45422e-09 -0 3.86807e-09 -1.04125e-09 7.45058e-09 1.31709e-09 1.22864e-09 2.91038e-10 
0 9.31323e-10 -0.000107019 9.31323e-10 9.31323e-10 -0 -4.65661e-10 5.82077e-11 -0 
1.31709e-09 0 -4.65661e-10 0 4.65661e-10 1.04125e-09 0 -0 -0.000669835 
7.85702e-10 1.86265e-09 4.65661e-10 1.39698e-09 7.46512e-09 -0 0 -9.31323e-10 0 
1.04125e-09 -9.31323e-10 -1.92824e-05 0 2.32831e-10 9.31323e-10 -0.000256201 -9.01301e-05 1.04125e-09 
1.31709e-09 -9.31323e-10 9.12446e-05 -4.79993e-10 1.31709e-09 3.62358e-10 -3.86807e-09 -9.31323e-10 -1.9619e-10 
0 -9.31323e-10 0.000241548 -3.65934e-09 3.49246e-10 7.46512e-09 2.50766e-09 0 -0 
-4.65661e-10 9.31323e-10 -0 -9.59985e-10 2.32831e-10 -9.31323e-10 5.82077e-11 0 3.95127e-09 
-0 -4.65661e-10 0 -2.32831e-09 0 9.49179e-05 7.45422e-09 1.86265e-09 -1.04288e-09 
0 -0 7.43643e-06 1.39698e-09 -4.65661e-10 -0 -0 1.31709e-09 0 
-0 3.49246e-10 -0 1.20089e-09 0.000150387 2.0825e-09 7.45058e-09 -1.31709e-09 7.45058e-09 
2.32831e-10 4.69285e-10 0 -0 7.58042e-09 -0.000246253 9.31323e-10 -9.31323e-10 1.32869e-09 
-9.31323e-10 -0 -3.75428e-09 -0 1.04125e-09 0.000104372 -1.53348e-05 -1.93404e-09 -0 
-4.65661e-10 4.65661e-10 -0 -2.84042e-10 5.52739e-05 0 1.39698e-09 -1.14063e-09 -7.52299e-09 
-9.31323e-10 -0 9.31323e-10 -0 9.31323e-10 -0 -1.67897e-09 -2.0825e-09 9.31323e-10 
4.65661e-10 4.65661e-10 -0 0 -0.000150601 -4.65661e-10 9.31323e-10 -7.99712e-05 -0 
-9.31323e-10 -9.31323e-10 -2.32831e-10 -2.69424e-09 1.31709e-09 1.31709e-09 0 0 7.50856e-09 
-3.83994e-09 0 5.18097e-05 0 -4.65661e-10 -9.31323e-10 9.31323e-10 0 8.73115e-11 
-4.65661e-10 4.65661e-10 6.61112e-10 0 -0 -0.000225502 -6.58544e-10 -0 4.65661e-10 
0.000464029 3.75428e-09 9.59985e-10 -0 -7.45058e-09 -7.73615e-09 -4.65661e-10 0 7.50856e-09 
4.79595e-05 1.04125e-09 -0 0 -0 -9.31323e-10 4.79993e-10 4.0346e-10 -3.25472e-10 
-3.86807e-09 3.72529e-09 -9.31323e-10 0 -1.31709e-09 -1.14063e-09 -9.98952e-05 9.31323e-10 7.47079e-09 
-1.04125e-09 1.67979e-10 7.45422e-09 0 6.49805e-10 -1.86265e-09 -2.37299e-09 -9.31323e-10 0 
-0 -4.65661e-10 -3.72529e-09 -4.65661e-10 -6.58544e-10 0 6.58544e-10 -6.58544e-10 -4.65661e-10 
-9.31323e-10 9.31323e-10 -0 -7.45058e-09 -1.04125e-09 1.04125e-09 7.50856e-09 -2.72521e-09 -9.3857e-10 
1.16415e-10 -0 4.65661e-10 -4.65661e-10 -5.96202e-05 -9.31323e-10 0 -4.65661e-10 -0 
4.65661e-10 2.9451e-09 7.80591e-09 2.63418e-09 -1.91997e-09 1.91997e-09 6.58544e-10 -9.31323e-10 6.58544e-10 
9.26359e-05 -1.87714e-09 7.46512e-09 1.91997e-09 0 -5.20625e-10 -1.04125e-09 0 -0 
2.93518e-10 0 1.04125e-09 -6.74683e-05 6.58544e-10 4.65661e-10 -6.18456e-11 0 -2.21667e-09 
8.17232e-09 -4.65661e-10 -4.65661e-10 0 7.6611e-05 -3.73256e-09 -3.72529e-09 1.04125e-09 5.20625e-10 
-0 -9.3857e-10 3.55372e-05 0 4.65661e-10 9.31323e-10 0 -0 4.65661e-10 
0 0.00108635 9.31323e-10 -1.86265e-09 -7.45058e-09 -9.31323e-10 -4.62582e-10 -0 -9.31323e-10 
5.20625e-10 2.32831e-10 4.79993e-10 -9.31323e-10 4.65661e-10 -0 1.86265e-09 4.65661e-10 -7.12004e-10 
-0 2.0825e-09 -1.54175e-10 0 0.000725732 -9.31323e-10 -4.69285e-10 2.32831e-10 -5.99991e-11 
-0 2.10794e-09 4.65661e-10 -0 9.94653e-10 4.65661e-10 -0.000678818 1.86355e-10 -6.58544e-10 
-1.86265e-09 2.0825e-09 -6.58544e-10 2.03317e-05 -4.65661e-10 -1.31709e-09 5.20625e-10 -9.31323e-10 -9.31323e-10 
-0 -7.45058e-09 -1.16415e-10 3.27442e-11 -4.65661e-10 5.20625e-10 0 9.31323e-10 9.31323e-10 
3.84699e-09 -7.16878e-05 0 3.13627e-10 -0 2.32831e-10 -4.65661e-10 7.48325e-09 0 
6.58544e-10 -0 -4.09279e-09 4.65661e-10 0 -2.32831e-10 4.65661e-10 1.25383e-09 -0 
0 9.31323e-10 0 -4.65661e-10 -0 0 -6.58544e-10 7.45422e-09 -9.59985e-10 
-0 9.31323e-10 4.65661e-10 9.31323e-10 0.000186095 -0 -1.16415e-10 0 -0.000158083 
9.59985e-10 0 -0 -0 -0.000117523 0 0.000561727 0 -4.65661e-10 
5.20625e-10 1.31709e-09 3.45172e-10 -0 1.16415e-10 -1.91997e-09 1.86265e-09 -2.32831e-10 -0 
-0 -0 -3.43129e-10 -0.000484021 0.000719175 -9.31323e-10 7.97084e-09 4.65661e-10 5.20625e-10 
0.000236898 0 -1.51403e-10 -1.91997e-09 -3.83994e-09 5.20625e-10 -5.20625e-10 0 -4.65661e-10 
4.65661e-10 -4.65661e-10 -3.78305e-09 0.000106865 -9.31323e-10 -1.86265e-09 2.32831e-10 6.58544e-10 -1.16415e-10 
-0 -5.20625e-10 -1.86265e-09 -0 -1.19173e-05 -6.58544e-10 -2.32831e-10 9.31323e-10 4.46391e-10 
-1.91997e-09 1.93404e-09 -5.20625e-10 -2.32831e-10 -1.04125e-09 -3.75428e-09 -1.49084e-09 -7.73615e-09 -0 
5.25898e-05 -0 -4.65661e-10 -7.73615e-09 -1.16415e-09 3.72711e-09 -9.3857e-10 2.32831e-10 7.52299e-09 
-1.42284e-09 -1.87714e-09 -0 -0 -0 -0 -3.59866e-10 -0 -1.04125e-09 
9.59985e-10 -3.29272e-10 1.87714e-09 -1.16415e-10 -0 0 3.70663e-10 -2.32831e-10 0 
4.65661e-10 -9.31323e-10 -9.31323e-10 -2.47796e-05 -5.20625e-10 -4.79993e-10 0.000283207 4.65661e-10 3.72529e-09 
9.94653e-10 -2.32831e-10 3.32414e-05 -5.20625e-10 -7.79064e-05 -0 9.59985e-10 7.45058e-09 -7.55535e-09 
2.32831e-10 -0 -0 2.32831e-10 9.31323e-10 -7.46512e-09 -9.31323e-10 9.59985e-10 -3.75609e-09 
7.45422e-09 0 1.95148e-09 5.33482e-10 -1.16415e-09 0 0 -5.82077e-11 -5.20625e-10 
2.17793e-10 -1.84069e-10 2.26151e-05 -5.20625e-10 0 -7.52299e-09 1.91997e-09 5.01037e-05 -0.000168136 
-0.00020337 -2.32831e-10 0.000103822 -4.79993e-10 9.35406e-10 -0 2.10375e-10 9.59985e-10 5.20625e-10 
-2.32831e-10 -0 2.32831e-10 0 -4.65661e-10 -2.68766e-09 2.32831e-10 -0 -3.72532e-09 
4.72881e-10 -0 -9.47552e-10 -0 -7.50832e-05 2.32831e-10 -0 -2.09548e-09 -1.97563e-09 
9.8953e-10 -1.87714e-09 -2.32831e-10 -2.32831e-10 -7.89121e-06 -2.32831e-10 -1.16415e-10 -9.59985e-10 -1.89175e-10 
-0 -0 2.60313e-10 -2.32831e-10 4.65661e-10 0.000351474 -0 0 -2.32831e-10 
-5.82077e-11 -0 7.7584e-05 -0 0.000205173 -2.60313e-10 2.00914e-10 -2.32831e-10 1.91997e-09 
-0 -4.71536e-11 0.000259781 -1.04125e-09 -1.16415e-10 -1.16415e-10 0.000275644 -9.3314e-10 9.89637e-11 
-2.30086e-11 -1.16415e-10 -2.39996e-10 -4.97326e-10 4.65661e-10 2.25906e-10 9.47552e-10 1.41872e-09 -0 
-1.16415e-10 -0.00039417 9.59985e-10 -7.45149e-09 2.71774e-09 -1.16415e-10 0.000192475 -0 9.87817e-10 
-0 -7.45058e-09 -1.16415e-10 0.000409102 2.32831e-10 1.86355e-09 -1.86265e-09 -5.63502e-05 6.84752e-10 
1.16415e-10 3.72711e-09 -9.3857e-10 -3.29272e-10 0 4.72028e-05 2.32831e-10 1.74623e-10 -6.22722e-05 
-0.000875294 0 -3.95257e-05 -5.34275e-10 9.59985e-10 -7.47328e-09 -4.32023e-06 0.000516326 4.87081e-05 
2.32831e-10 -7.44996e-10 9.3857e-10 0 -1.16415e-10 -4.65661e-10 -1.16415e-10 -0 -1.16415e-10 
-0.000182658 -0 0 5.70316e-10 -4.79993e-10 -1.16415e-10 -5.20625e-10 1.04774e-09 -1.16415e-10 
9.31323e-10 -7.51059e-09 -8.01154e-09 9.51817e-10 4.79993e-10 9.94653e-10 3.49246e-10 9.75738e-10 -1.16415e-10 
0 -0.000387758 0.000388908 5.40162e-05 0 -2.47823e-05 0 -5.82077e-11 -2.45564e-11 
-1.75228e-10 0 0.000509766 1.16415e-10 4.29295e-05 -4.79993e-10 -3.83147e-05 1.16415e-10 -5.82077e-11 
-1.30156e-10 -1.30156e-10 -1.86355e-10 1.74623e-10 0 1.45519e-10 0.000122215 4.65661e-10 0 
-1.16415e-10 -1.16415e-10 -7.46563e-09 0.000122848 3.68138e-10 -1.90935e-09 -0 -1.86628e-09 0 
-9.74659e-10 4.97326e-10 8.73115e-11 0.000124256 2.91038e-11 0 -0 -4.85748e-10 -4.07454e-10 
1.16415e-10 -3.75278e-10 9.45763e-10 -1.16415e-10 -2.32831e-10 -6.50781e-11 -4.65661e-10 -1.16415e-10 2.60313e-10 
-1.27659e-09 -3.49246e-10 0 1.30156e-10 0 -7.47561e-09 4.97326e-10 -4.69285e-10 1.45519e-11 
1.16415e-10 2.91038e-11 1.16415e-10 -5.6898e-10 -0.000113668 0 0.000109529 -1.87714e-09 -2.08981e-09 
0 1.16415e-10 -7.19989e-10 1.64636e-10 1.59933e-09 -1.01081e-09 5.5748e-05 0 5.27896e-10 
-7.723e-09 7.50947e-09 0 9.27107e-05 3.73256e-09 -3.75789e-09 5.20625e-10 5.82077e-11 -2.18279e-11 
8.23181e-11 -2.39996e-10 -2.32831e-10 5.82077e-11 -3.87938e-06 2.13009e-05 5.82077e-11 1.86265e-09 5.82077e-11 
-4.77768e-05 -2.33285e-10 8.18545e-11 1.74623e-10 -2.35741e-09 -9.59985e-10 0 -0 -5.86606e-11 
-1.25687e-09 -0 4.65661e-10 -7.27596e-11 5.82077e-11 1.16415e-10 0 8.56426e-05 1.77032e-10 
-9.3857e-10 -1.46429e-10 -9.36877e-10 -5.82077e-11 -5.82077e-11 7.80591e-09 2.77353e-05 4.81974e-10 1.16415e-10 
-0 1.45519e-11 -1.45519e-10 -8.0448e-05 0 -1.92138e-09 0 -3.72711e-10 1.09826e-09 
5.82077e-11 1.97425e-10 -0 -0.000218527 -9.59985e-10 -0 4.6657e-10 -2.39996e-10 9.94653e-10 
5.07351e-10 -7.88834e-10 3.4495e-05 9.59985e-10 4.60172e-11 -2.32831e-10 -8.39483e-10 -4.65661e-10 -4.65661e-10 
1.34636e-10 -9.45106e-10 4.36557e-11 1.23945e-09 1.16415e-10 1.71256e-10 2.11158e-09 7.55934e-05 4.71311e-10 
-0.000316014 -9.3857e-10 -0 -0 3.72529e-09 3.84171e-09 -1.86287e-09 -0 -4.7165e-10 
1.45519e-10 9.59985e-10 -0 -0.000708475 -1.16415e-10 -2.91038e-11 0 4.65661e-10 -4.36557e-11 
-2.91038e-11 4.65661e-10 1.16415e-10 4.88086e-11 1.16415e-10 4.79993e-10 -0 0 7.58846e-09 
-5.82077e-11 -5.82077e-11 -2.32831e-10 2.32831e-10 -9.31323e-10 -3.72711e-09 0 8.73115e-11 -0 
-8.73115e-11 1.16415e-10 -7.48891e-09 1.35762e-09 -7.47328e-09 1.3982e-09 6.58544e-10 0.000110359 -4.81809e-10 
2.03311e-09 9.94653e-10 6.98492e-10 -7.58131e-09 0 -1.16415e-10 -4.11847e-10 1.04774e-09 7.9171e-10 
8.64936e-05 -8.39483e-10 -7.51578e-09 -2.51845e-09 7.45172e-09 6.29311e-05 -1.16415e-09 -5.20625e-10 -5.74074e-05 