# vtk DataFile Version 3.0
Optimized signed-distance field created by drake/geometry/proximity/empress
ASCII

DATASET UNSTRUCTURED_GRID
POINTS 3575 double
 -0.03887533  -0.00850162   0.02741713
 -0.03863476  -0.00492905   0.03054109
 -0.03739462  -0.00950396   0.02613460
 -0.03820993  -0.00483103   0.02593483
 -0.03965394  -0.00401232   0.02722356
 -0.04037209  -0.00443781   0.03062977
 -0.03988188  -0.00885066   0.03155423
 -0.03856554  -0.00972470   0.03064608
 -0.03877772  -0.00497140   0.03533382
 -0.04043782  -0.00447239   0.03546203
 -0.03992584  -0.00890842   0.03547325
 -0.03889524  -0.00978567   0.03536374
 -0.03879402  -0.00497214   0.04021073
 -0.04049428  -0.00443459   0.04035058
 -0.03992660  -0.00879990   0.04037777
 -0.03887360  -0.00978050   0.04029376
 -0.03877740  -0.00496787   0.04509359
 -0.04039343  -0.00474601   0.04444676
 -0.03992094  -0.00851239   0.04472699
 -0.03870005  -0.00971423   0.04516652
 -0.03904944  -0.00497594   0.05005379
 -0.03876257  -0.00008544   0.03050028
 -0.03857246  -0.00000327   0.02582578
 -0.04008868   0.00045513   0.02734514
 -0.04075212   0.00010776   0.03080407
 -0.03887440  -0.00011065   0.03529707
 -0.04114923   0.00037194   0.03554455
 -0.03889755  -0.00009663   0.04020900
 -0.04124048   0.00058051   0.04035956
 -0.03887496  -0.00009840   0.04509088
 -0.04087817   0.00055908   0.04470614
 -0.03892557  -0.00012895   0.05004733
 -0.03882151   0.00474986   0.03050220
 -0.03882324   0.00477698   0.02572252
 -0.04041201   0.00457933   0.02735182
 -0.04088283   0.00445439   0.03072096
 -0.03892402   0.00473099   0.03530803
 -0.04125970   0.00427930   0.03564589
 -0.03896804   0.00473805   0.04021977
 -0.04157089   0.00420434   0.04045422
 -0.03894996   0.00474645   0.04510535
 -0.04130778   0.00429253   0.04493112
 -0.03879851   0.00477453   0.04994086
 -0.04077031   0.00479654   0.04958247
 -0.04018375   0.00117741   0.04912289
 -0.03838172   0.00496651   0.05449566
 -0.03890142   0.00958091   0.03047881
 -0.03923343   0.00964084   0.03533301
 -0.03887058   0.00953904   0.04022322
 -0.04034043   0.00871206   0.03587544
 -0.04058337   0.00868695   0.04015664
 -0.03927072   0.00964815   0.04512004
 -0.03875615   0.00949707   0.04993864
 -0.03761826   0.00913553   0.05435480
 -0.03837138   0.01435598   0.04027177
 -0.03822988   0.01438206   0.04509063
 -0.03456285  -0.02146458   0.02673197
 -0.03381331  -0.01949130   0.03048680
 -0.03233285  -0.02334313   0.02597674
 -0.03415354  -0.01962068   0.02554739
 -0.03562839  -0.01854549   0.02638688
 -0.03639287  -0.01885232   0.03106993
 -0.03515642  -0.02185935   0.03140504
 -0.03295722  -0.02371589   0.03072538
 -0.03393549  -0.01953638   0.03536592
 -0.03716929  -0.01910063   0.03580780
 -0.03576649  -0.02176515   0.03577299
 -0.03328011  -0.02377683   0.03545739
 -0.03397167  -0.01953203   0.04019796
 -0.03700664  -0.01862237   0.04003180
 -0.03537243  -0.02199129   0.03975605
 -0.03322117  -0.02388863   0.04011095
 -0.03390494  -0.01949151   0.04505555
 -0.03667253  -0.01808274   0.04482209
 -0.03490333  -0.02167198   0.04438748
 -0.03271450  -0.02366739   0.04505087
 -0.03418937  -0.01964445   0.05007707
 -0.03483255  -0.01856771   0.02210678
 -0.03392302  -0.01478189   0.02557377
 -0.03341180  -0.01922797   0.02103496
 -0.03413058  -0.01477456   0.02066467
 -0.03551628  -0.01399751   0.02185938
 -0.03665637  -0.01430292   0.02633699
 -0.03406520  -0.01481107   0.03042808
 -0.03749468  -0.01429478   0.03082372
 -0.03416612  -0.01484248   0.03531642
 -0.03800416  -0.01455384   0.03539695
 -0.03420858  -0.01484334   0.04020578
 -0.03795453  -0.01446464   0.04022309
 -0.03417596  -0.01480123   0.04509987
 -0.03759534  -0.01435704   0.04511954
 -0.03411842  -0.01476508   0.05002721
 -0.03719110  -0.01431781   0.04988732
 -0.03613140  -0.01777772   0.04997085
 -0.03403149  -0.01472840   0.05495473
 -0.03685133  -0.01412006   0.05489356
 -0.03553119  -0.01767853   0.05447419
 -0.03370249  -0.01937789   0.05497633
 -0.03389581  -0.01463228   0.05981780
 -0.03646328  -0.01339427   0.05950006
 -0.03491027  -0.01733717   0.05905656
 -0.03302295  -0.01886786   0.05944293
 -0.03352371  -0.01429295   0.06449336
 -0.03439293  -0.01352776   0.01798814
 -0.03381520  -0.00986819   0.02074761
 -0.03264550  -0.01441135   0.01640927
 -0.03329218  -0.00976899   0.01621195
 -0.03509613  -0.00923354   0.01793135
 -0.03621798  -0.00921755   0.02155829
 -0.03405163  -0.00992428   0.02553339
 -0.03421183  -0.00995662   0.03040358
 -0.03431203  -0.00997356   0.03528680
 -0.03434285  -0.00998362   0.04019566
 -0.03432311  -0.00997321   0.04512135
 -0.03426577  -0.00996061   0.05004540
 -0.03810295  -0.00963236   0.05003793
 -0.03420091  -0.00994660   0.05497570
 -0.03767295  -0.00955844   0.05502804
 -0.03413992  -0.00991113   0.05989772
 -0.03737206  -0.00949371   0.05992957
 -0.03395370  -0.00982234   0.06464525
 -0.03659110  -0.00959361   0.06351486
 -0.03588122  -0.01258634   0.06343677
 -0.03269016  -0.00948501   0.06842411
 -0.03392702  -0.00501134   0.02071857
 -0.03365564  -0.00492586   0.01601899
 -0.03542540  -0.00448741   0.01774071
 -0.03673825  -0.00472642   0.02159359
 -0.03415439  -0.00503867   0.02550566
 -0.03431786  -0.00506798   0.03037511
 -0.03440566  -0.00508531   0.03527063
 -0.03442440  -0.00508894   0.04019193
 -0.03441802  -0.00508655   0.04512334
 -0.03439036  -0.00507906   0.05005291
 -0.03432523  -0.00507028   0.05498596
 -0.03852316  -0.00484007   0.05508846
 -0.03423095  -0.00508924   0.05988822
 -0.03736832  -0.00528160   0.05929339
 -0.03406220  -0.00513331   0.06469805
 -0.03613236  -0.00542715   0.06407394
 -0.03343640  -0.00486253   0.06894674
 -0.03399602  -0.00012456   0.02070263
 -0.03377564  -0.00002887   0.01603314
 -0.03572262   0.00026090   0.01768506
 -0.03710311   0.00006354   0.02152007
 -0.03422777  -0.00015186   0.02549385
 -0.03437998  -0.00016775   0.03035653
 -0.03443679  -0.00017947   0.03525898
 -0.03444556  -0.00018107   0.04018714
 -0.03444475  -0.00018080   0.04511943
 -0.03443126  -0.00018030   0.05005086
 -0.03435059  -0.00019839   0.05494106
 -0.03807000  -0.00064179   0.05489206
 -0.03415930  -0.00032190   0.05975205
 -0.03687004  -0.00054541   0.05898962
 -0.03432858  -0.00034763   0.06475028
 -0.03360427  -0.00151018   0.06895736
 -0.03403531   0.00476713   0.02068528
 -0.03396300   0.00482202   0.01595182
 -0.03576127   0.00494277   0.01736776
 -0.03725550   0.00482224   0.02144333
 -0.03426812   0.00474859   0.02548181
 -0.03440640   0.00474082   0.03034859
 -0.03444496   0.00473499   0.03525719
 -0.03445280   0.00473426   0.04018643
 -0.03445251   0.00473465   0.04511950
 -0.03443661   0.00473339   0.05004513
 -0.03431680   0.00471582   0.05485500
 -0.03367052   0.00481495   0.05864360
 -0.03289113   0.00213520   0.06340003
 -0.03396282   0.00959354   0.02071448
 -0.03329848   0.00946423   0.01628847
 -0.03521861   0.00848984   0.01784104
 -0.03651698   0.00909727   0.02178339
 -0.03422181   0.00962805   0.02550016
 -0.03793664   0.00948802   0.02605159
 -0.03438326   0.00964236   0.03035651
 -0.03444226   0.00964839   0.03526078
 -0.03445188   0.00964835   0.04018810
 -0.03445455   0.00964895   0.04511946
 -0.03442634   0.00963979   0.05003407
 -0.03425740   0.00957658   0.05477480
 -0.03342075   0.00919530   0.05838935
 -0.03391450   0.01446006   0.02078103
 -0.03409266   0.01448646   0.02555180
 -0.03571940   0.01368263   0.02229373
 -0.03699484   0.01406895   0.02619647
 -0.03426057   0.01452715   0.03038895
 -0.03771926   0.01427424   0.03075792
 -0.03435537   0.01455015   0.03527739
 -0.03818336   0.01447912   0.03546782
 -0.03438852   0.01455452   0.04019511
 -0.03438500   0.01455025   0.04511695
 -0.03432882   0.01452635   0.05000243
 -0.03760579   0.01417071   0.04960480
 -0.03408181   0.01439168   0.05462072
 -0.03645924   0.01369767   0.05407282
 -0.03302992   0.01382711   0.05751208
 -0.03425524   0.01945408   0.02553180
 -0.03405707   0.01935410   0.03043473
 -0.03588005   0.01846930   0.02641044
 -0.03660152   0.01869615   0.03095134
 -0.03418209   0.01941182   0.03530496
 -0.03722149   0.01901198   0.03550348
 -0.03423807   0.01943620   0.04020701
 -0.03725003   0.01908668   0.04034482
 -0.03422724   0.01941705   0.04510435
 -0.03720050   0.01907111   0.04503135
 -0.03412331   0.01933817   0.04993251
 -0.03655464   0.01866037   0.04915002
 -0.03387405   0.01922527   0.05460265
 -0.03252362   0.01828524   0.05676213
 -0.03318726   0.02360500   0.03076431
 -0.03389911   0.02408814   0.03535377
 -0.03417406   0.02426922   0.04027834
 -0.03393633   0.02409202   0.04506459
 -0.03643462   0.02249713   0.04074511
 -0.03626752   0.02309419   0.04518221
 -0.03375107   0.02373442   0.04968658
 -0.03302434   0.02289815   0.05416037
 -0.03252240   0.02756281   0.04468688
 -0.03207403   0.02687517   0.04877677
 -0.03009439  -0.02624186   0.02266912
 -0.02900519  -0.02434547   0.02559999
 -0.02760413  -0.02772391   0.02155985
 -0.02913080  -0.02442951   0.02070631
 -0.03177016  -0.02271571   0.02178817
 -0.03054678  -0.02696965   0.02640467
 -0.02849591  -0.02846041   0.02568848
 -0.02911303  -0.02443691   0.03041388
 -0.03106822  -0.02685260   0.03082422
 -0.02859405  -0.02864313   0.03048974
 -0.02918057  -0.02446311   0.03530785
 -0.03129132  -0.02703292   0.03573333
 -0.02872683  -0.02879357   0.03541161
 -0.02920898  -0.02449348   0.04021702
 -0.03142642  -0.02727954   0.04041445
 -0.02886083  -0.02895174   0.04033872
 -0.02917968  -0.02448411   0.04511431
 -0.03124904  -0.02689296   0.04488682
 -0.02859434  -0.02877809   0.04509301
 -0.02911353  -0.02442264   0.05001946
 -0.03235092  -0.02352818   0.05001324
 -0.03102152  -0.02638811   0.04971746
 -0.02822178  -0.02842073   0.04995797
 -0.02903047  -0.02434553   0.05492902
 -0.03204832  -0.02332183   0.05489318
 -0.03063702  -0.02605256   0.05439536
 -0.02784768  -0.02807749   0.05480568
 -0.02891760  -0.02429047   0.05970093
 -0.02945346  -0.02125020   0.01340089
 -0.02886968  -0.01942915   0.01587594
[...]
POINT_DATA 3575
SCALARS SignedDistance(meter) double 1
LOOKUP_TABLE default
          0.00210439
          0.00015733
          0.00133745
          0.00116307
          0.00192745
          0.00172831
          0.00185130
          0.00107711
          0.00014191
          0.00171863
          0.00182723
          0.00100512
          0.00010330
          0.00170603
          0.00182901
          0.00101165
          0.00028250
          0.00173138
          0.00183978
          0.00104538
          0.00096619
         -0.00029643
          0.00107966
          0.00183670
          0.00164202
         -0.00055862
          0.00155679
         -0.00058852
          0.00154443
         -0.00004004
          0.00163646
          0.00103011
         -0.00031092
          0.00101522
          0.00175861
          0.00160740
         -0.00056797
          0.00154943
         -0.00088275
          0.00147965
         -0.00061527
          0.00152639
         -0.00021536
          0.00162419
          0.00180130
          0.00113343
          0.00100837
          0.00095660
          0.00029153
          0.00175349
          0.00170349
          0.00094973
          0.00106507
          0.00131599
          0.00113566
          0.00115746
          0.00209437
         -0.00027726
          0.00142892
          0.00097082
          0.00172154
          0.00154761
          0.00194475
          0.00127877
         -0.00095781
          0.00135696
          0.00183493
          0.00121082
         -0.00054160
          0.00144090
          0.00189577
          0.00121724
          0.00009198
          0.00156365
          0.00201208
          0.00133402
          0.00097371
          0.00189353
         -0.00073610
          0.00113243
          0.00097617
          0.00174964
          0.00148690
         -0.00167657
          0.00128849
         -0.00252308
          0.00116294
         -0.00229546
          0.00118433
         -0.00188144
          0.00126811
         -0.00145317
          0.00136352
          0.00166411
         -0.00075845
          0.00143799
          0.00180719
          0.00108358
         -0.00003039
          0.00157994
          0.00194854
          0.00128653
          0.00116164
          0.00204352
         -0.00026773
          0.00131079
          0.00117323
          0.00189273
          0.00159454
         -0.00151502
         -0.00286392
         -0.00343023
         -0.00336931
         -0.00307364
         -0.00244308
          0.00115565
         -0.00205240
          0.00124421
         -0.00175081
          0.00130447
          0.00021445
          0.00154749
          0.00178258
          0.00140053
         -0.00073638
          0.00108149
          0.00180906
          0.00148002
         -0.00237686
         -0.00376482
         -0.00417460
         -0.00420231
         -0.00397757
         -0.00347471
         -0.00299887
          0.00104226
         -0.00126443
          0.00135779
         -0.00019903
          0.00159948
          0.00119101
         -0.00106834
          0.00106066
          0.00174466
          0.00139890
         -0.00276059
         -0.00449852
         -0.00487000
         -0.00491062
         -0.00426801
         -0.00345527
         -0.00180409
          0.00120592
         -0.00086770
          0.00145847
          0.00095133
          0.00123446
         -0.00122234
          0.00101486
          0.00170285
          0.00136027
         -0.00293210
         -0.00456461
         -0.00488766
         -0.00524060
         -0.00494494
         -0.00407947
         -0.00160722
          0.00127842
          0.00157971
         -0.00015498
          0.00119175
          0.00189191
          0.00156452
         -0.00182465
          0.00121386
         -0.00316449
         -0.00366198
         -0.00392717
         -0.00368476
         -0.00274803
         -0.00102161
          0.00130953
          0.00104478
         -0.00080886
          0.00174057
          0.00142755
         -0.00181884
          0.00125912
         -0.00252144
          0.00114269
         -0.00263989
         -0.00249704
         -0.00139796
          0.00130839
         -0.00008626
          0.00156274
          0.00150474
          0.00096414
         -0.00043265
          0.00166466
          0.00150546
         -0.00140039
          0.00134483
         -0.00144303
          0.00135818
         -0.00140395
          0.00136198
         -0.00017947
          0.00154678
          0.00107281
          0.00169610
          0.00125730
          0.00106419
          0.00100404
          0.00035965
          0.00164564
          0.00159339
          0.00113975
          0.00134482
          0.00147807
          0.00166423
          0.00207778
         -0.00068127
          0.00147415
          0.00100366
          0.00160741
          0.00186338
          0.00122014
         -0.00122812
          0.00177838
          0.00118085
         -0.00150762
          0.00171525
          0.00113662
         -0.00173863
          0.00165495
          0.00108892
         -0.00125878
          0.00175017
          0.00116861
         -0.00081226
          0.00139183
          0.00186319
          0.00128590
         -0.00029430
          0.00145995
          0.00196209
          0.00138748
          0.00108554
          0.00223835
         -0.00013633
          0.00162012
          0.00119290
          0.00182154
          0.00148858
          0.00190658
          0.00129996
         -0.00172920
         -0.00292821
         -0.00373077
         -0.00427436
         -0.00412865
         -0.00345817
         -0.00305715
         -0.00253929
         -0.00111718
          0.00167699
          0.00092839
         -0.00147524
          0.00092824
          0.00165636
         -0.00322296
         -0.00481171
         -0.00586512
         -0.00688482
         -0.00672092
         -0.00600088
         -0.00542938
         -0.00460201
         -0.00336046
         -0.00173496
          0.00155186
          0.00097386
          0.00127038
          0.00204129
         -0.00023495
          0.00145034
          0.00136189
          0.00193713
          0.00155987
         -0.00212535
         -0.00413703
         -0.00568494
         -0.00718962
         -0.00807634
         -0.00804217
         -0.00762604
         -0.00695158
         -0.00656932
         -0.00575739
         -0.00306632
         -0.00021990
          0.00157831
          0.00138042
         -0.00038603
          0.00138819
          0.00194214
          0.00148582
         -0.00259594
         -0.00466619
         -0.00657679
         -0.00816727
         -0.00898070
         -0.00901468
         -0.00877546
         -0.00810113
         -0.00740639
         -0.00576053
         -0.00419256
         -0.00122874
          0.00128453
          0.00001143
          0.00144822
          0.00203168
          0.00153011
         -0.00241469
         -0.00495883
         -0.00702200
         -0.00891021
         -0.00963651
         -0.00970627
         -0.00905339
         -0.00772723
         -0.00531678
         -0.00328889
         -0.00166929
          0.00096141
          0.00165401
          0.00092686
         -0.00230853
          0.00153737
         -0.00517190
         -0.00709031
         -0.00904017
         -0.00960305
         -0.00996159
         -0.00965029
         -0.00788919
         -0.00391098
          0.00007867
          0.00116533
          0.00155080
         -0.00147182
          0.00109719
          0.00170117
         -0.00389506
         -0.00592673
         -0.00766027
         -0.00837289
         -0.00862626
         -0.00839048
         -0.00712129
         -0.00348899
         -0.00005399
          0.00153742
         -0.00075365
          0.00129396
          0.00184337
          0.00140076
         -0.00268608
         -0.00473841
         -0.00619046
         -0.00714759
         -0.00727758
         -0.00713380
         -0.00565754
         -0.00239885
          0.00109773
          0.00180591
          0.00116659
         -0.00050263
          0.00169925
          0.00133978
         -0.00247214
         -0.00386896
         -0.00503722
         -0.00556242
         -0.00581154
         -0.00422452
         -0.00110333
          0.00135756
          0.00120248
          0.00003375
          0.00176419
          0.00146123
         -0.00119787
         -0.00220181
         -0.00256656
         -0.00269743
         -0.00152943
          0.00098615
          0.00166267
          0.00134457
          0.00108438
          0.00044361
          0.00171672
          0.00158356
          0.00011657
          0.00151238
          0.00017591
          0.00107774
          0.00132179
          0.00145135
          0.00137549
          0.00142484
          0.00160213
          0.00211676
         -0.00054922
          0.00168118
          0.00104206
          0.00184788
          0.00141863
         -0.00119273
          0.00179064
          0.00125883
         -0.00138084
          0.00174642
          0.00121220
         -0.00160462
          0.00169681
          0.00116284
         -0.00146671
          0.00172561
          0.00114458
         -0.00091578
          0.00183663
          0.00128264
         -0.00040907
          0.00193272
          0.00139847
          0.00092406
          0.00203243
         -0.00106038
          0.00162738
          0.00109998
          0.00174788
          0.00131281
         -0.00246326
         -0.00387000
         -0.00445978
         -0.00468210
         -0.00491977
         -0.00450355
         -0.00389645
         -0.00332723
         -0.00194820
          0.00153776
         -0.00003123
          0.00139304
          0.00184379
          0.00135405
          0.00126979
          0.00207475
         -0.00103550
          0.00168216
          0.00126724
          0.00165013
         -0.00327408
         -0.00499596
         -0.00662186
         -0.00758689
         -0.00793769
         -0.00806369
         -0.00752443
         -0.00709095
         -0.00635177
         -0.00451432
         -0.00257861
         -0.00005517
          0.00175726
          0.00157944
         -0.00295944
          0.00091340
         -0.00544519
         -0.00739132
         -0.00932027
         -0.01023926
         -0.01102621
         -0.01074311
         -0.01003346
         -0.00959445
         -0.00883319
         -0.00713100
         -0.00514968
         -0.00116214
          0.00130485
          0.00204871
         -0.00046375
          0.00153594
          0.00136757
          0.00193644
         -0.00348643
         -0.00610248
         -0.00836674
         -0.01023070
         -0.01174882
         -0.01286311
         -0.01278021
         -0.01231929
         -0.01170360
         -0.01107378
         -0.00960174
         -0.00664475
         -0.00313922
          0.00094134
          0.00158964
         -0.00006822
          0.00146302
          0.00198553
         -0.00332528
         -0.00648352
         -0.00890843
         -0.01105761
         -0.01271054
         -0.01384717
         -0.01387804
         -0.01360379
         -0.01281255
         -0.01115522
         -0.00923596
         -0.00646561
         -0.00245512
          0.00107226
          0.00092008
         -0.00293144
         -0.00621092
         -0.00895276
         -0.01150459
         -0.01340889
         -0.01450194
         -0.01458281
         -0.01387755
         -0.01097388
         -0.00705784
         -0.00491475
         -0.00321033
         -0.00058861
          0.00146870
         -0.00265769
          0.00098725
          0.00145893
         -0.00576249
         -0.00886065
         -0.01142666
         -0.01339152
         -0.01435351
         -0.01471105
         -0.01437560
         -0.00954639
         -0.00475947
         -0.00034888
          0.00102744
          0.00127283
          0.00182871
         -0.00162885
          0.00113079
          0.00166263
         -0.00475714
         -0.00793900
         -0.01020689
         -0.01222587
         -0.01312305
         -0.01335885
         -0.01312744
         -0.00945187
         -0.00471887
         -0.00044496
          0.00158681
         -0.00006188
          0.00141942
          0.00185128
         -0.00301538
         -0.00619114
         -0.00848485
         -0.01051764
         -0.01169848
         -0.01200678
         -0.01167363
         -0.00841230
         -0.00417281
         -0.00014242
          0.00165186
          0.00127993
         -0.00077319
          0.00167735
         -0.00347860
         -0.00585956
         -0.00765405
         -0.00886441
         -0.00940403
         -0.00939940
         -0.00629035
         -0.00249391
          0.00106386
          0.00180906
          0.00115649
         -0.00095602
          0.00160477
         -0.00319251
         -0.00475219
         -0.00594066
         -0.00636778
         -0.00618260
         -0.00416167
         -0.00020935
          0.00148655
          0.00117165
         -0.00040820
          0.00160539
         -0.00197075
         -0.00293054
         -0.00335509
         -0.00298261
         -0.00195934
          0.00112827
          0.00186606
          0.00145631
          0.00113295
          0.00094012
          0.00153939
         -0.00040451
         -0.00019756
          0.00100178
          0.00142281
          0.00151591
          0.00156190
          0.00164392
          0.00205386
         -0.00018864
          0.00185622
          0.00108560
          0.00191920
          0.00162794
         -0.00016623
          0.00191008
          0.00161129
         -0.00027654
          0.00189993
          0.00156335
         -0.00050897
          0.00186135
          0.00151456
          0.00003996
          0.00198124
          0.00157888
          0.00101812
          0.00224282
         -0.00009410
          0.00198284
          0.00139388
          0.00195233
          0.00154326
         -0.00136979
          0.00130816
         -0.00275423
         -0.00408715
         -0.00419460
         -0.00424416
         -0.00439140
         -0.00363260
         -0.00289824
         -0.00204075
          0.00152092
          0.00115317
          0.00023363
          0.00187672
          0.00145467
          0.00137033
          0.00214467
         -0.00055734
          0.00186892
          0.00134354
         -0.00310912
         -0.00479686
         -0.00630689
         -0.00759713
         -0.00783629
         -0.00809983
         -0.00793952
         -0.00732172
         -0.00671709
         -0.00508996
         -0.00260226
         -0.00035920
          0.00174771
          0.00146278
          0.00225047
         -0.00023103
          0.00187846
          0.00146649
          0.00184529
         -0.00312144
         -0.00633320
         -0.00854371
         -0.01011735
         -0.01125246
         -0.01149472
         -0.01174917
         -0.01129744
         -0.01066126
         -0.00995882
         -0.00801015
         -0.00553571
         -0.00162585
          0.00127242
         -0.00217229
          0.00108451
         -0.00536026
         -0.00876826
         -0.01121423
         -0.01304022
         -0.01425996
         -0.01481830
         -0.01479163
         -0.01422878
         -0.01379149
         -0.01270562
         -0.01084623
         -0.00704388
         -0.00284090
          0.00100084
         -0.00325706
          0.00100382
         -0.00667667
         -0.01019037
         -0.01266487
         -0.01474381
         -0.01633680
         -0.01747069
         -0.01748885
         -0.01677335
         -0.01626118
         -0.01510922
         -0.01183843
         -0.00753068
         -0.00303897
          0.00102087
         -0.00270423
          0.00112418
         -0.00624061
         -0.00998299
         -0.01320721
         -0.01550792
         -0.01727481
         -0.01871764
         -0.01870150
         -0.01692603
         -0.01372056
         -0.01108060
         -0.00857951
         -0.00568648
         -0.00246807
          0.00117214
         -0.00227733
          0.00117234
          0.00155090
         -0.00590539
         -0.00967053
         -0.01301495
         -0.01575896
         -0.01792244
         -0.01938116
         -0.01849930
         -0.01427101
         -0.01030115
         -0.00695693
         -0.00447444
         -0.00248898
         -0.00000124
          0.00138708
         -0.00176146
          0.00115044
          0.00164771
         -0.00534123
         -0.00923007
         -0.01254741
         -0.01567030
         -0.01775360
         -0.01910727
         -0.01718077
         -0.01272719
         -0.00834648
         -0.00409527
         -0.00063898
          0.00106577
          0.00146295
          0.00196477
         -0.00103691
          0.00130097
          0.00176572
         -0.00454509
         -0.00795335
         -0.01133910
         -0.01442372
         -0.01658799
         -0.01781536
         -0.01658268
         -0.01215904
         -0.00777852
         -0.00355069
          0.00096135
          0.00179181
          0.00097609
         -0.00233400
         -0.00548760
         -0.00886374
         -0.01193990
         -0.01419160
         -0.01554674
         -0.01627738
         -0.01177177
         -0.00730425
         -0.00303684
          0.00103634
          0.00183467
         -0.00024664
          0.00134458
          0.00180422
         -0.00311658
         -0.00623959
         -0.00918100
         -0.01127463
         -0.01271215
         -0.01325945
         -0.01153616
         -0.00707775
         -0.00264604
          0.00112247
          0.00192434
          0.00135209
         -0.00021373
          0.00164752
         -0.00285627
         -0.00578548
         -0.00796344
         -0.00975224
         -0.01020471
         -0.00958808
         -0.00521474
         -0.00124956
          0.00126979
          0.00141430
          0.00029824
          0.00167280
         -0.00197016
         -0.00391428
         -0.00531331
         -0.00625196
         -0.00596506
         -0.00339510
          0.00093487
          0.00169206
          0.00150726
          0.00114918
         -0.00021313
         -0.00105202
         -0.00195938
         -0.00151185
         -0.00079467
          0.00133820
          0.00149690
          0.00136939
          0.00120763
          0.00134489
          0.00142567
          0.00186054
          0.00208357
          0.00010365
          0.00184650
          0.00113431
          0.00159848
         -0.00113168
          0.00135582
         -0.00183415
          0.00123799
         -0.00206603
          0.00119093
         -0.00236039
          0.00111059
         -0.00217450
          0.00109249
         -0.00147217
          0.00169274
          0.00123943
         -0.00069463
          0.00182581
          0.00142579
          0.00093014
         -0.00082647
          0.00183171
          0.00115189
          0.00144189
         -0.00265495
         -0.00388608
         -0.00517894
         -0.00591437
         -0.00616963
         -0.00642911
         -0.00590200
         -0.00513074
         -0.00435776
         -0.00209816
         -0.00002878
          0.00185471
          0.00141328
          0.00129329
         -0.00179691
          0.00162060
          0.00107245
         -0.00440462
         -0.00687866
         -0.00831989
         -0.00969599
         -0.01042658
         -0.01058870
         -0.01085060
         -0.01012560
         -0.00927839
         -0.00767994
         -0.00499755
         -0.00257637
          0.00095523
         -0.00123987
          0.00175692
          0.00126249
         -0.00480930
         -0.00791802
         -0.01086941
         -0.01270065
         -0.01426750
         -0.01474619
         -0.01501328
         -0.01481754
         -0.01420214
         -0.01353533
         -0.01097660
         -0.00779141