# vtk DataFile Version 3.0
signed-distance field created by drake/geometry/proximity/empress
ASCII

DATASET UNSTRUCTURED_GRID
POINTS 3575 double
 -0.04433744  -0.01003149   0.02537454
 -0.03941336  -0.00511061   0.03031082
 -0.03941336  -0.01003149   0.02537454
 -0.03941336  -0.00511061   0.02537454
 -0.04433744  -0.00511061   0.02537454
 -0.04433744  -0.00511061   0.03031082
 -0.04433744  -0.01003149   0.03031082
 -0.03941336  -0.01003149   0.03031082
 -0.03941336  -0.00511061   0.03524709
 -0.04433744  -0.00511061   0.03524709
 -0.04433744  -0.01003149   0.03524709
 -0.03941336  -0.01003149   0.03524709
 -0.03941336  -0.00511061   0.04018337
 -0.04433744  -0.00511061   0.04018337
 -0.04433744  -0.01003149   0.04018337
 -0.03941336  -0.01003149   0.04018337
 -0.03941336  -0.00511061   0.04511965
 -0.04433744  -0.00511061   0.04511965
 -0.04433744  -0.01003149   0.04511965
 -0.03941336  -0.01003149   0.04511965
 -0.03941336  -0.00511061   0.05005593
 -0.03941336  -0.00018973   0.03031082
 -0.03941336  -0.00018973   0.02537454
 -0.04433744  -0.00018973   0.02537454
 -0.04433744  -0.00018973   0.03031082
 -0.03941336  -0.00018973   0.03524709
 -0.04433744  -0.00018973   0.03524709
 -0.03941336  -0.00018973   0.04018337
 -0.04433744  -0.00018973   0.04018337
 -0.03941336  -0.00018973   0.04511965
 -0.04433744  -0.00018973   0.04511965
 -0.03941336  -0.00018973   0.05005593
 -0.03941336   0.00473116   0.03031082
 -0.03941336   0.00473116   0.02537454
 -0.04433744   0.00473116   0.02537454
 -0.04433744   0.00473116   0.03031082
 -0.03941336   0.00473116   0.03524709
 -0.04433744   0.00473116   0.03524709
 -0.03941336   0.00473116   0.04018337
 -0.04433744   0.00473116   0.04018337
 -0.03941336   0.00473116   0.04511965
 -0.04433744   0.00473116   0.04511965
 -0.03941336   0.00473116   0.05005593
 -0.04433744   0.00473116   0.05005593
 -0.04433744  -0.00018973   0.05005593
 -0.03941336   0.00473116   0.05499220
 -0.03941336   0.00965204   0.03031082
 -0.03941336   0.00965204   0.03524709
 -0.03941336   0.00965204   0.04018337
 -0.04433744   0.00965204   0.03524709
 -0.04433744   0.00965204   0.04018337
 -0.03941336   0.00965204   0.04511965
 -0.03941336   0.00965204   0.05005593
 -0.03941336   0.00965204   0.05499220
 -0.03941336   0.01457292   0.04018337
 -0.03941336   0.01457292   0.04511965
 -0.03941336  -0.02479414   0.02537454
 -0.03448928  -0.01987325   0.03031082
 -0.03448928  -0.02479414   0.02537454
 -0.03448928  -0.01987325   0.02537454
 -0.03941336  -0.01987325   0.02537454
 -0.03941336  -0.01987325   0.03031082
 -0.03941336  -0.02479414   0.03031082
 -0.03448928  -0.02479414   0.03031082
 -0.03448928  -0.01987325   0.03524709
 -0.03941336  -0.01987325   0.03524709
 -0.03941336  -0.02479414   0.03524709
 -0.03448928  -0.02479414   0.03524709
 -0.03448928  -0.01987325   0.04018337
 -0.03941336  -0.01987325   0.04018337
 -0.03941336  -0.02479414   0.04018337
 -0.03448928  -0.02479414   0.04018337
 -0.03448928  -0.01987325   0.04511965
 -0.03941336  -0.01987325   0.04511965
 -0.03941336  -0.02479414   0.04511965
 -0.03448928  -0.02479414   0.04511965
 -0.03448928  -0.01987325   0.05005593
 -0.03941336  -0.01987325   0.02043826
 -0.03448928  -0.01495237   0.02537454
 -0.03448928  -0.01987325   0.02043826
 -0.03448928  -0.01495237   0.02043826
 -0.03941336  -0.01495237   0.02043826
 -0.03941336  -0.01495237   0.02537454
 -0.03448928  -0.01495237   0.03031082
 -0.03941336  -0.01495237   0.03031082
 -0.03448928  -0.01495237   0.03524709
 -0.03941336  -0.01495237   0.03524709
 -0.03448928  -0.01495237   0.04018337
 -0.03941336  -0.01495237   0.04018337
 -0.03448928  -0.01495237   0.04511965
 -0.03941336  -0.01495237   0.04511965
 -0.03448928  -0.01495237   0.05005593
 -0.03941336  -0.01495237   0.05005593
 -0.03941336  -0.01987325   0.05005593
 -0.03448928  -0.01495237   0.05499220
 -0.03941336  -0.01495237   0.05499220
 -0.03941336  -0.01987325   0.05499220
 -0.03448928  -0.01987325   0.05499220
 -0.03448928  -0.01495237   0.05992848
 -0.03941336  -0.01495237   0.05992848
 -0.03941336  -0.01987325   0.05992848
 -0.03448928  -0.01987325   0.05992848
 -0.03448928  -0.01495237   0.06486476
 -0.03941336  -0.01495237   0.01550199
 -0.03448928  -0.01003149   0.02043826
 -0.03448928  -0.01495237   0.01550199
 -0.03448928  -0.01003149   0.01550199
 -0.03941336  -0.01003149   0.01550199
 -0.03941336  -0.01003149   0.02043826
 -0.03448928  -0.01003149   0.02537454
 -0.03448928  -0.01003149   0.03031082
 -0.03448928  -0.01003149   0.03524709
 -0.03448928  -0.01003149   0.04018337
 -0.03448928  -0.01003149   0.04511965
 -0.03448928  -0.01003149   0.05005593
 -0.03941336  -0.01003149   0.05005593
 -0.03448928  -0.01003149   0.05499220
 -0.03941336  -0.01003149   0.05499220
 -0.03448928  -0.01003149   0.05992848
 -0.03941336  -0.01003149   0.05992848
 -0.03448928  -0.01003149   0.06486476
 -0.03941336  -0.01003149   0.06486476
 -0.03941336  -0.01495237   0.06486476
 -0.03448928  -0.01003149   0.06980103
 -0.03448928  -0.00511061   0.02043826
 -0.03448928  -0.00511061   0.01550199
 -0.03941336  -0.00511061   0.01550199
 -0.03941336  -0.00511061   0.02043826
 -0.03448928  -0.00511061   0.02537454
 -0.03448928  -0.00511061   0.03031082
 -0.03448928  -0.00511061   0.03524709
 -0.03448928  -0.00511061   0.04018337
 -0.03448928  -0.00511061   0.04511965
 -0.03448928  -0.00511061   0.05005593
 -0.03448928  -0.00511061   0.05499220
 -0.03941336  -0.00511061   0.05499220
 -0.03448928  -0.00511061   0.05992848
 -0.03941336  -0.00511061   0.05992848
 -0.03448928  -0.00511061   0.06486476
 -0.03941336  -0.00511061   0.06486476
 -0.03448928  -0.00511061   0.06980103
 -0.03448928  -0.00018973   0.02043826
 -0.03448928  -0.00018973   0.01550199
 -0.03941336  -0.00018973   0.01550199
 -0.03941336  -0.00018973   0.02043826
 -0.03448928  -0.00018973   0.02537454
 -0.03448928  -0.00018973   0.03031082
 -0.03448928  -0.00018973   0.03524709
 -0.03448928  -0.00018973   0.04018337
 -0.03448928  -0.00018973   0.04511965
 -0.03448928  -0.00018973   0.05005593
 -0.03448928  -0.00018973   0.05499220
 -0.03941336  -0.00018973   0.05499220
 -0.03448928  -0.00018973   0.05992848
 -0.03941336  -0.00018973   0.05992848
 -0.03448928  -0.00018973   0.06486476
 -0.03448928  -0.00018973   0.06980103
 -0.03448928   0.00473116   0.02043826
 -0.03448928   0.00473116   0.01550199
 -0.03941336   0.00473116   0.01550199
 -0.03941336   0.00473116   0.02043826
 -0.03448928   0.00473116   0.02537454
 -0.03448928   0.00473116   0.03031082
 -0.03448928   0.00473116   0.03524709
 -0.03448928   0.00473116   0.04018337
 -0.03448928   0.00473116   0.04511965
 -0.03448928   0.00473116   0.05005593
 -0.03448928   0.00473116   0.05499220
 -0.03448928   0.00473116   0.05992848
 -0.03448928   0.00473116   0.06486476
 -0.03448928   0.00965204   0.02043826
 -0.03448928   0.00965204   0.01550199
 -0.03941336   0.00965204   0.01550199
 -0.03941336   0.00965204   0.02043826
 -0.03448928   0.00965204   0.02537454
 -0.03941336   0.00965204   0.02537454
 -0.03448928   0.00965204   0.03031082
 -0.03448928   0.00965204   0.03524709
 -0.03448928   0.00965204   0.04018337
 -0.03448928   0.00965204   0.04511965
 -0.03448928   0.00965204   0.05005593
 -0.03448928   0.00965204   0.05499220
 -0.03448928   0.00965204   0.05992848
 -0.03448928   0.01457292   0.02043826
 -0.03448928   0.01457292   0.02537454
 -0.03941336   0.01457292   0.02043826
 -0.03941336   0.01457292   0.02537454
 -0.03448928   0.01457292   0.03031082
 -0.03941336   0.01457292   0.03031082
 -0.03448928   0.01457292   0.03524709
 -0.03941336   0.01457292   0.03524709
 -0.03448928   0.01457292   0.04018337
 -0.03448928   0.01457292   0.04511965
 -0.03448928   0.01457292   0.05005593
 -0.03941336   0.01457292   0.05005593
 -0.03448928   0.01457292   0.05499220
 -0.03941336   0.01457292   0.05499220
 -0.03448928   0.01457292   0.05992848
 -0.03448928   0.01949380   0.02537454
 -0.03448928   0.01949380   0.03031082
 -0.03941336   0.01949380   0.02537454
 -0.03941336   0.01949380   0.03031082
 -0.03448928   0.01949380   0.03524709
 -0.03941336   0.01949380   0.03524709
 -0.03448928   0.01949380   0.04018337
 -0.03941336   0.01949380   0.04018337
 -0.03448928   0.01949380   0.04511965
 -0.03941336   0.01949380   0.04511965
 -0.03448928   0.01949380   0.05005593
 -0.03941336   0.01949380   0.05005593
 -0.03448928   0.01949380   0.05499220
 -0.03448928   0.01949380   0.05992848
 -0.03448928   0.02441469   0.03031082
 -0.03448928   0.02441469   0.03524709
 -0.03448928   0.02441469   0.04018337
 -0.03448928   0.02441469   0.04511965
 -0.03941336   0.02441469   0.04018337
 -0.03941336   0.02441469   0.04511965
 -0.03448928   0.02441469   0.05005593
 -0.03448928   0.02441469   0.05499220
 -0.03448928   0.02933557   0.04511965
 -0.03448928   0.02933557   0.05005593
 -0.03448928  -0.02971502   0.02043826
 -0.02956521  -0.02479414   0.02537454
 -0.02956521  -0.02971502   0.02043826
 -0.02956521  -0.02479414   0.02043826
 -0.03448928  -0.02479414   0.02043826
 -0.03448928  -0.02971502   0.02537454
 -0.02956521  -0.02971502   0.02537454
 -0.02956521  -0.02479414   0.03031082
 -0.03448928  -0.02971502   0.03031082
 -0.02956521  -0.02971502   0.03031082
 -0.02956521  -0.02479414   0.03524709
 -0.03448928  -0.02971502   0.03524709
 -0.02956521  -0.02971502   0.03524709
 -0.02956521  -0.02479414   0.04018337
 -0.03448928  -0.02971502   0.04018337
 -0.02956521  -0.02971502   0.04018337
 -0.02956521  -0.02479414   0.04511965
 -0.03448928  -0.02971502   0.04511965
 -0.02956521  -0.02971502   0.04511965
 -0.02956521  -0.02479414   0.05005593
 -0.03448928  -0.02479414   0.05005593
 -0.03448928  -0.02971502   0.05005593
 -0.02956521  -0.02971502   0.05005593
 -0.02956521  -0.02479414   0.05499220
 -0.03448928  -0.02479414   0.05499220
 -0.03448928  -0.02971502   0.05499220
 -0.02956521  -0.02971502   0.05499220
 -0.02956521  -0.02479414   0.05992848
 -0.03448928  -0.02479414   0.01056571
 -0.02956521  -0.01987325   0.01550199
[...]
POINT_DATA 3575
SCALARS SignedDistance(meter) double 1
LOOKUP_TABLE default
          0.00812411
          0.00098890
          0.00355350
          0.00251372
          0.00707563
          0.00575803
          0.00661725
          0.00202875
          0.00079175
          0.00567148
          0.00637165
          0.00156336
          0.00073639
          0.00560768
          0.00640042
          0.00159217
          0.00091997
          0.00574680
          0.00652071
          0.00181098
          0.00134708
          0.00037408
          0.00204372
          0.00655835
          0.00526837
         -0.00001506
          0.00480355
         -0.00006467
          0.00473669
          0.00049536
          0.00519303
          0.00151192
          0.00026981
          0.00168280
          0.00615343
          0.00509558
         -0.00009102
          0.00467490
         -0.00045186
          0.00430220
         -0.00017194
          0.00458883
          0.00039279
          0.00522292
          0.00626516
          0.00230126
          0.00154070
          0.00113940
          0.00084404
          0.00589346
          0.00557831
          0.00108796
          0.00173919
          0.00328779
          0.00219620
          0.00234786
          0.00812587
          0.00051622
          0.00409423
          0.00141471
          0.00585353
          0.00482350
          0.00722738
          0.00319574
         -0.00030911
          0.00379347
          0.00660095
          0.00280184
          0.00006956
          0.00415016
          0.00682235
          0.00276848
          0.00079181
          0.00484567
          0.00754459
          0.00343346
          0.00134529
          0.00692826
         -0.00011458
          0.00252212
          0.00142381
          0.00600144
          0.00447669
         -0.00121500
          0.00337848
         -0.00218423
          0.00262402
         -0.00199892
          0.00271081
         -0.00153812
          0.00317161
         -0.00104892
          0.00367013
          0.00554884
         -0.00025074
          0.00412666
          0.00628420
          0.00199774
          0.00065182
          0.00493828
          0.00718676
          0.00312034
          0.00238617
          0.00781609
          0.00048698
          0.00343210
          0.00258527
          0.00690575
          0.00507578
         -0.00103777
         -0.00256252
         -0.00324489
         -0.00321608
         -0.00289874
         -0.00221045
          0.00250861
         -0.00175203
          0.00303828
         -0.00138227
          0.00340804
          0.00080643
          0.00470016
          0.00626330
          0.00373105
         -0.00010304
          0.00207297
          0.00641904
          0.00441649
         -0.00201234
         -0.00357698
         -0.00408797
         -0.00413490
         -0.00390685
         -0.00337197
         -0.00282997
          0.00196034
         -0.00100812
          0.00349073
          0.00025645
          0.00498806
          0.00256664
         -0.00050728
          0.00195880
          0.00604998
          0.00395880
         -0.00247092
         -0.00437843
         -0.00481642
         -0.00486603
         -0.00422375
         -0.00339812
         -0.00167197
          0.00260084
         -0.00049154
          0.00418929
          0.00119942
          0.00302913
         -0.00073018
          0.00170013
          0.00580044
          0.00373696
         -0.00269752
         -0.00448425
         -0.00484508
         -0.00520592
         -0.00491043
         -0.00402756
         -0.00140471
          0.00279948
          0.00494893
          0.00043542
          0.00262144
          0.00682893
          0.00479832
         -0.00153192
          0.00283098
         -0.00305359
         -0.00361466
         -0.00389024
         -0.00365053
         -0.00268077
         -0.00070184
          0.00323806
          0.00171892
         -0.00036631
          0.00596392
          0.00402012
         -0.00157620
          0.00301809
         -0.00238424
          0.00236982
         -0.00253807
         -0.00239063
         -0.00122267
          0.00319729
          0.00047891
          0.00477534
          0.00441881
          0.00121137
          0.00001530
          0.00547435
          0.00449549
         -0.00107768
          0.00360024
         -0.00118591
          0.00354836
         -0.00113073
          0.00360795
          0.00023543
          0.00465539
          0.00184544
          0.00559956
          0.00284992
          0.00173604
          0.00134764
          0.00098794
          0.00521037
          0.00500295
          0.00220668
          0.00359648
          0.00416066
          0.00532350
          0.00810498
          0.00006259
          0.00448354
          0.00162811
          0.00528559
          0.00677375
          0.00289512
         -0.00064608
          0.00626398
          0.00263423
         -0.00099726
          0.00591280
          0.00238887
         -0.00128539
          0.00556822
          0.00213426
         -0.00077008
          0.00604388
          0.00250994
         -0.00022931
          0.00387079
          0.00667220
          0.00314836
          0.00040486
          0.00430812
          0.00731049
          0.00376538
          0.00193116
          0.00901574
          0.00076923
          0.00529048
          0.00274783
          0.00655559
          0.00453530
          0.00703713
          0.00333824
         -0.00119128
         -0.00261693
         -0.00351541
         -0.00410822
         -0.00398431
         -0.00329558
         -0.00285825
         -0.00228872
         -0.00075679
          0.00560308
          0.00103903
         -0.00095188
          0.00116843
          0.00548891
         -0.00296018
         -0.00470586
         -0.00580847
         -0.00683850
         -0.00668323
         -0.00596098
         -0.00538376
         -0.00453720
         -0.00323953
         -0.00149096
          0.00486891
          0.00123006
          0.00310968
          0.00782114
          0.00055021
          0.00427455
          0.00365374
          0.00719491
          0.00487069
         -0.00173520
         -0.00396644
         -0.00562904
         -0.00715380
         -0.00805314
         -0.00802433
         -0.00760847
         -0.00693039
         -0.00654233
         -0.00572227
         -0.00298537
          0.00017991
          0.00489547
          0.00361145
          0.00032974
          0.00373261
          0.00709770
          0.00440209
         -0.00227310
         -0.00454416
         -0.00653187
         -0.00814287
         -0.00896770
         -0.00900619
         -0.00876785
         -0.00809103
         -0.00739316
         -0.00573973
         -0.00414978
         -0.00087024
          0.00333204
          0.00075960
          0.00422735
          0.00768597
          0.00470369
         -0.00211707
         -0.00486196
         -0.00698555
         -0.00889307
         -0.00962967
         -0.00970293
         -0.00905057
         -0.00772369
         -0.00530340
         -0.00321413
         -0.00141980
          0.00126104
          0.00549688
          0.00109918
         -0.00202458
          0.00481444
         -0.00509307
         -0.00706041
         -0.00902775
         -0.00959914
         -0.00995998
         -0.00964892
         -0.00788646
         -0.00387816
          0.00035455
          0.00232971
          0.00486230
         -0.00110073
          0.00207700
          0.00572198
         -0.00379724
         -0.00589481
         -0.00764789
         -0.00836872
         -0.00862451
         -0.00838902
         -0.00711671
         -0.00342294
          0.00051697
          0.00469437
         -0.00017428
          0.00323219
          0.00664583
          0.00390521
         -0.00250102
         -0.00468731
         -0.00617050
         -0.00713830
         -0.00727235
         -0.00712912
         -0.00564263
         -0.00224219
          0.00198611
          0.00631105
          0.00236302
         -0.00008841
          0.00566811
          0.00340327
         -0.00235325
         -0.00383332
         -0.00501488
         -0.00554764
         -0.00579527
         -0.00418453
         -0.00072036
          0.00360458
          0.00254628
          0.00050495
          0.00603795
          0.00412847
         -0.00099870
         -0.00209906
         -0.00250822
         -0.00263226
         -0.00134361
          0.00139104
          0.00556317
          0.00342204
          0.00183591
          0.00095679
          0.00568453
          0.00479188
          0.00053121
          0.00438707
          0.00061374
          0.00177321
          0.00356907
          0.00401263
          0.00357760
          0.00385974
          0.00493448
          0.00829526
          0.00022560
          0.00568909
          0.00182697
          0.00671763
          0.00407765
         -0.00061769
          0.00632123
          0.00306931
         -0.00086667
          0.00607261
          0.00280433
         -0.00113402
          0.00580526
          0.00253698
         -0.00101391
          0.00588761
          0.00239021
         -0.00039027
          0.00651537
          0.00314627
          0.00022026
          0.00712590
          0.00392252
          0.00104705
          0.00787006
         -0.00031924
          0.00532867
          0.00218430
          0.00616926
          0.00339764
         -0.00202937
         -0.00363079
         -0.00430470
         -0.00455005
         -0.00480502
         -0.00439158
         -0.00375316
         -0.00314026
         -0.00170494
          0.00468315
          0.00049733
          0.00379103
          0.00655432
          0.00344074
          0.00298466
          0.00811280
         -0.00031021
          0.00564935
          0.00315974
          0.00562355
         -0.00295603
         -0.00484876
         -0.00655889
         -0.00754705
         -0.00790732
         -0.00803818
         -0.00749913
         -0.00706180
         -0.00631680
         -0.00445693
         -0.00244609
          0.00046319
          0.00605310
          0.00484531
         -0.00261427
          0.00112370
         -0.00533587
         -0.00734416
         -0.00929713
         -0.01022657
         -0.01101828
         -0.01073710
         -0.01002750
         -0.00958730
         -0.00882366
         -0.00711666
         -0.00512677
         -0.00098565
          0.00313775
          0.00790004
          0.00028050
          0.00486168
          0.00382371
          0.00719547
         -0.00326123
         -0.00605568
         -0.00834109
         -0.01022031
         -0.01174507
         -0.01286139
         -0.01277900
         -0.01231820
         -0.01170240
         -0.01107214
         -0.00959940
         -0.00663172
         -0.00303864
          0.00110946
          0.00491994
          0.00061172
          0.00424553
          0.00739776
         -0.00312094
         -0.00643803
         -0.00889023
         -0.01105140
         -0.01270875
         -0.01384630
         -0.01387748
         -0.01360335
         -0.01281220
         -0.01115137
         -0.00922060
         -0.00642089
         -0.00218419
          0.00209117
          0.00107262
         -0.00271739
         -0.00616676
         -0.00893783
         -0.01150019
         -0.01340770
         -0.01450142
         -0.01458254
         -0.01387740
         -0.01097120
         -0.00704042
         -0.00483929
         -0.00297066
          0.00001098
          0.00428229
         -0.00242276
          0.00149677
          0.00437563
         -0.00572353
         -0.00884729
         -0.01142330
         -0.01339064
         -0.01435320
         -0.01471095
         -0.01437518
         -0.00953963
         -0.00472177
         -0.00017134
          0.00167740
          0.00329857
          0.00655154
         -0.00129409
          0.00231707
          0.00548339
         -0.00470049
         -0.00792344
         -0.01020347
         -0.01222504
         -0.01312278
         -0.01335879
         -0.01312751
         -0.00944110
         -0.00464915
          0.00014280
          0.00493475
          0.00050571
          0.00386983
          0.00665957
         -0.00289041
         -0.00616818
         -0.00847961
         -0.01051655
         -0.01169811
         -0.01200662
         -0.01167333
         -0.00839897
         -0.00407403
          0.00056837
          0.00538166
          0.00298284
         -0.00041328
          0.00555689
         -0.00340829
         -0.00584492
         -0.00765092
         -0.00886350
         -0.00940351
         -0.00939791
         -0.00626348
         -0.00225642
          0.00186937
          0.00634695
          0.00230299
         -0.00064840
          0.00512291
         -0.00311857
         -0.00473383
         -0.00593415
         -0.00636408
         -0.00617443
         -0.00409291
          0.00031471
          0.00436143
          0.00239061
          0.00002103
          0.00518096
         -0.00181673
         -0.00287831
         -0.00331333
         -0.00292843
         -0.00177707
          0.00225172
          0.00665934
          0.00409579
          0.00217873
          0.00102893
          0.00472388
          0.00007850
          0.00031757
          0.00139230
          0.00418873
          0.00453393
          0.00482892
          0.00533910
          0.00796637
          0.00062455
          0.00659403
          0.00201267
          0.00701075
          0.00525794
          0.00054124
          0.00692124
          0.00512092
          0.00040197
          0.00685273
          0.00485854
          0.00013937
          0.00667938
          0.00459595
          0.00072648
          0.00736153
          0.00490761
          0.00156376
          0.00906733
          0.00087041
          0.00748483
          0.00385088
          0.00728474
          0.00483789
         -0.00077161
          0.00341597
         -0.00238305
         -0.00386961
         -0.00403844
         -0.00410695
         -0.00426505
         -0.00348879
         -0.00269935
         -0.00179059
          0.00472165
          0.00241257
          0.00078945
          0.00668402
          0.00402903
          0.00348349
          0.00849199
          0.00026749
          0.00683983
          0.00358545
         -0.00276364
         -0.00464132
         -0.00623510
         -0.00755662
         -0.00780595
         -0.00807330
         -0.00791542
         -0.00729591
         -0.00668537
         -0.00505845
         -0.00250118
          0.00013079
          0.00597343
          0.00411647
          0.00911440
          0.00069593
          0.00691516
          0.00440268
          0.00669832
         -0.00277366
         -0.00623871
         -0.00850624
         -0.01009909
         -0.01124362
         -0.01148898
         -0.01174430
         -0.01129310
         -0.01065643
         -0.00995290
         -0.00800186
         -0.00551452
         -0.00147221
          0.00290900
         -0.00169342
          0.00225927
         -0.00523201
         -0.00873322
         -0.01120254
         -0.01303576
         -0.01425821
         -0.01481739
         -0.01479096
         -0.01422817
         -0.01379085
         -0.01270489
         -0.01084502
         -0.00703365
         -0.00274855
          0.00137486
         -0.00296821
          0.00178341
         -0.00663446
         -0.01017619
         -0.01266157
         -0.01474271
         -0.01633634
         -0.01747048
         -0.01748873
         -0.01677324
         -0.01626116
         -0.01510818
         -0.01183258
         -0.00750295
         -0.00280003
          0.00190289
         -0.00246896
          0.00229747
         -0.00619913
         -0.00997449
         -0.01320580
         -0.01550737
         -0.01727463
         -0.01871759
         -0.01870148
         -0.01692600
         -0.01371995
         -0.01107316
         -0.00854866
         -0.00557712
         -0.00207369
          0.00270634
         -0.00196815
          0.00258603
          0.00494226
         -0.00586877
         -0.00966213
         -0.01301370
         -0.01575859
         -0.01792234
         -0.01938115
         -0.01849930
         -0.01427080
         -0.01029749
         -0.00693378
         -0.00434510
         -0.00207796
          0.00094404
          0.00398168
         -0.00140339
          0.00245831
          0.00541631
         -0.00530128
         -0.00922082
         -0.01254624
         -0.01567000
         -0.01775354
         -0.01910726
         -0.01718076
         -0.01272666
         -0.00833514
         -0.00399348
         -0.00022343
          0.00192541
          0.00437384
          0.00739584
         -0.00059181
          0.00328686
          0.00618409
         -0.00446988
         -0.00794159
         -0.01133770
         -0.01442342
         -0.01658793
         -0.01781536
         -0.01658265
         -0.01215814
         -0.00775936
         -0.00336059
          0.00124937
          0.00604270
          0.00132599
         -0.00217765
         -0.00546446
         -0.00886057
         -0.01193949
         -0.01419153
         -0.01554673
         -0.01627729
         -0.01177044
         -0.00727944
         -0.00279431
          0.00180180
          0.00646294
          0.00024743
          0.00352217
          0.00629491
         -0.00302612
         -0.00622821
         -0.00917960
         -0.01127444
         -0.01271212
         -0.01325937
         -0.01153346
         -0.00704664
         -0.00235577
          0.00233510
          0.00702598
          0.00345836
          0.00021189
          0.00544643
         -0.00278913
         -0.00577558
         -0.00796185
         -0.00975170
         -0.01020427
         -0.00957685
         -0.00516923
         -0.00084737
          0.00318975
          0.00378026
          0.00078569
          0.00537705
         -0.00185512
         -0.00388709
         -0.00530131
         -0.00624000
         -0.00593098
         -0.00315815
          0.00117540
          0.00558302
          0.00438896
          0.00219658
          0.00018767
         -0.00085092
         -0.00178457
         -0.00122520
         -0.00009934
          0.00369941
          0.00440286
          0.00359946
          0.00273482
          0.00348057
          0.00402710
          0.00676454
          0.00799060
          0.00087567
          0.00658996
          0.00226244
          0.00510493
         -0.00059560
          0.00376099
         -0.00142387
          0.00298935
         -0.00169725
          0.00266671
         -0.00202980
          0.00223338
         -0.00186364
          0.00212075
         -0.00108977
          0.00567365
          0.00300329
         -0.00018345
          0.00648984
          0.00403568
          0.00107325
         -0.00015678
          0.00651013
          0.00250697
          0.00412380
         -0.00231304
         -0.00370916
         -0.00509593
         -0.00586350
         -0.00612610
         -0.00638869
         -0.00586266
         -0.00508201
         -0.00427543
         -0.00194614
          0.00046567
          0.00656142
          0.00386128
          0.00318483
         -0.00126085
          0.00542327
          0.00206332
         -0.00421405
         -0.00682368
         -0.00829097
         -0.00968077
         -0.01041844
         -0.01058267
         -0.01084526
         -0.01012036
         -0.00927155
         -0.00767048
         -0.00497653
         -0.00247984
          0.00112278
         -0.00064856
          0.00613905
          0.00327176
         -0.00463905
         -0.00787537
         -0.01085594
         -0.01269580
         -0.01426560
         -0.01474524
         -0.01501258
         -0.01481694
         -0.01420155
         -0.01353467
         -0.01097578
         -0.00778863