# vtk DataFile Version 5.1
vtk output
ASCII
DATASET UNSTRUCTURED_GRID
FIELD FieldData 1
_PYVISTA_USER_DICT 1 2 string
{
}

POINTS 21669 double
0.02998893 0.01687182 0.02161752 0.03269948 0.00830943 0.02162563 0.0240545 0.01422037 0.00800978 
0.01145438 0.01718572 0.00741306 0.00862612 0.00831678 0.02162384 0.02203206 0.01695771 0.00744853 
0.02878733 0.014087 0.01379476 0.03214054 0.01032224 0.0216614 0.00862612 0.01708148 0.02162384 
0.02218292 0.00829186 0.00681237 0.02002238 0.01705051 0.0069018 0.0271884 0.01686643 0.0127232 
0.02983875 0.01576798 0.01753329 0.00877877 0.01714364 0.00832903 0.03223667 0.00816845 0.01791404 
0.02422889 0.00824737 0.00743786 0.01581768 0.01709199 0.00687538 0.02220229 0.01047061 0.00693829 
0.02832471 0.01685919 0.01483991 0.02888461 0.00816859 0.01111938 0.02447864 0.01631736 0.0090259 
0.02984792 0.01685588 0.0195507 0.00894027 0.00835956 0.00963479 0.03155732 0.00867299 0.01639936 
0.03204501 0.0102897 0.02002751 0.02255901 0.01590601 0.00753312 0.01692176 0.00832649 0.00687666 
0.02926332 0.01684526 0.01700235 0.02876467 0.00867727 0.0111382 0.02629386 0.00820898 0.00847359 
0.02295388 0.01688993 0.00798402 0.03095676 0.0092362 0.01535048 0.03146688 0.00974081 0.01698389 
0.03168122 0.00818661 0.0163677 0.03204837 0.0097551 0.01905734 0.02364454 0.01152917 0.00753232 
0.01213781 0.00835134 0.0079298 0.02607175 0.01686677 0.01113251 0.0252988 0.00934052 0.00805634 
0.02665889 0.00979077 0.00906115 0.02346884 0.01578074 0.00802679 0.03035628 0.01192399 0.01590254 
0.02984756 0.00918676 0.01324975 0.03091947 0.01302186 0.01848609 0.00991667 0.01716087 0.00789212 
0.01371423 0.00834637 0.00743754 0.02771995 0.01084196 0.01062889 0.02513293 0.0131202 0.00858115 
0.02453958 0.01468906 0.00854693 0.02985358 0.01142427 0.01434799 0.03092515 0.01356311 0.01955384 
0.02498472 0.01630359 0.00958392 0.02662974 0.01142141 0.00957127 0.02605494 0.01576472 0.01064644 
0.025840685556 0.013763208779 0.0095773377309 0.024799652598 0.01474874572 0.0088076934664 0.025436937989 0.014961472809 0.0095804424997 
0.026153807019 0.010892789994 0.008902273076 0.027454175 0.013854195 0.011676045 0.026388582983 0.015708622613 0.011035699281 
0.026878258333 0.013918669365 0.010886075267 0.0273212875 0.0153603125 0.0121996225 0.013305169733 0.0099463995897 0.007433108823 
0.01045829 0.01274749 0.008129415 0.01129805 0.010549415 0.0080296075 0.0092134284132 0.016005919947 0.0082773698 
0.0088009350293 0.015938071016 0.0085082387227 0.0088644156679 0.012485321745 0.0090214924598 0.0087647744092 0.017137940911 0.0095479538183 
0.0087671099107 0.016469404978 0.009344547015 0.0087337154177 0.014538396042 0.012252987492 0.0087246910405 0.017121618722 0.01303895133 
0.025680218116 0.016905172024 0.011498010841 0.021640200833 0.017008951581 0.0082160556394 0.023660209475 0.016957061803 0.0098570332402 
0.024670213795 0.016931116914 0.010677522041 0.024314322937 0.016879824428 0.0093578235847 0.025193036469 0.016873297214 0.010245166792 
0.025384079153 0.016510494214 0.010152849644 0.025334269132 0.016612437679 0.010157320232 0.024905983222 0.016464736289 0.0095909868456 
0.024682730858 0.01687708784 0.0097298495686 0.025469381517 0.016059556482 0.010065094483 0.02514913621 0.016887539539 0.010291135848 
0.02422652242 0.016908309078 0.0094497616954 0.024613335888 0.016899601277 0.0098025147723 0.024165211635 0.016944089358 0.01026727764 
0.02282124754 0.016939944103 0.0081682265891 0.022329090891 0.016991255443 0.0087756835202 0.023306755 0.01506319 0.00777145 
0.023649838339 0.015298507344 0.0080215330561 0.022836236339 0.014788237733 0.0075329156933 0.023113462678 0.013670465465 0.0075327113866 
0.021112335 0.01376056 0.006920045 0.01636972 0.01270924 0.00687602 0.020852396411 0.013685692296 0.0068674436041 
0.021682412823 0.010320874593 0.0068330872081 0.020958089669 0.0099852236661 0.0068244946896 0.018926891472 0.012793414432 0.0068446016767 
0.020093184236 0.0083056150558 0.0068379060248 0.028518744833 0.0081742938673 0.010745742096 0.031008517982 0.0085535280345 0.015223839493 
0.02842035345 0.0081719860171 0.011360106943 0.013839068271 0.0083170523089 0.0093069912821 0.023988623036 0.0082289829263 0.0086278428758 
0.020229406243 0.0082616022785 0.0088793875152 0.017069593651 0.0082890205004 0.0090908235571 0.029568653257 0.013009840105 0.014844415842 
0.022978475297 0.0082117931263 0.014181837061 0.03105705323 0.013620413589 0.021639303338 0.02880400038 0.011281331147 0.021656070486 
0.01871506019 0.014181405574 0.021639955243 0.019123109223 0.016978459903 0.021620734558 0.021191396201 0.017029550741 0.0086278651975 
0.028827260338 0.016892647543 0.019902302047 0.023380843989 0.016990296192 0.011860608784 0.021689179159 0.017020626004 0.0093628471748 
0.022535011574 0.017005461098 0.01061172798 0.026319207047 0.016937614362 0.016199133953 0.027618326115 0.016914322492 0.018117297456 
0.028344745714 0.016899665804 0.020357454343 0.024794939824 0.016959785098 0.01763696338 0.020636089401 0.017030219134 0.01444971446 
0.014944279644 0.017126615274 0.010087640171 0.015825379347 0.01711674208 0.0071522386734 0.026633664918 0.016928644563 0.019046120713 
0.027917343871 0.016892151068 0.021618132861 0.025761471642 0.016913309341 0.021618770656 0.023759530285 0.012731368361 0.021648012865 
0.023758182741 0.0083121599278 0.02162496516 0.028803095657 0.0083106196314 0.02162534028 0.01619215137 0.0083144699639 0.02162440258 
0.031033767439 0.0081824381294 0.015152643835 0.030083764375 0.0081763167699 0.013369799576 0.030012792299 0.0081685428811 0.013406217092 
0.030906569334 0.0081685055521 0.015217912308 0.031515702347 0.0081684801115 0.016452631174 0.031457880791 0.0085101814888 0.016054107655 
0.031346259019 0.0081684871883 0.01610916781 0.031444721493 0.0081850861182 0.015923869848 0.031126414177 0.0081684963702 0.015663540059 
0.031236336598 0.0081684917793 0.015886353934 0.031267442357 0.0081839438173 0.015591175035 0.031356081925 0.0081845149678 0.015757522441 
0.031435498487 0.0083206361395 0.015949875872 0.031251305791 0.0084211020523 0.015636675159 0.028546072289 0.0084153277313 0.010806317947 
0.014604913132 0.01208066097 0.007103963875 0.012379774867 0.013566059795 0.0074230844115 0.0128424723 0.011756229692 0.0074280966173 
0.013413902834 0.014010549539 0.007220812882 0.022062902273 0.015782377161 0.007356084712 0.022088978063 0.014788684778 0.0072779262742 
0.022145634031 0.012629647389 0.0071081081371 0.022117306047 0.013709166083 0.0071930172057 0.021171529707 0.01239195238 0.0068542339016 
0.01994249057 0.011389319049 0.0068345481831 0.021531412173 0.012495605993 0.0069270600263 0.022804329411 0.014780891399 0.0075191255052 
0.023049648821 0.013655772797 0.0075051310103 0.023519602636 0.011500404097 0.0074783220178 0.023877429752 0.0098592867337 0.0074579094067 
0.030383695 0.01493887 0.019018395 0.0306515825 0.013980365 0.0187522425 0.03037911 0.01439492 0.01800969 
0.030029469699 0.0143513962 0.01693232745 0.030241555499 0.014276835423 0.017397366369 0.030644360998 0.012785690846 0.017261442738 
0.030931788273 0.011721664603 0.017164452605 0.030488573925 0.014897592517 0.019552567432 0.031725368714 0.01005241202 0.018136094282 
0.031283640595 0.011680021851 0.018327933464 0.031474800619 0.011956452173 0.019786327105 0.03137040513 0.011716964222 0.018714273801 
0.031709387565 0.010736032111 0.0188858069 0.031504504655 0.010866216936 0.018232013873 0.031392051757 0.011874704881 0.019133287764 
0.025749476723 0.0096703351125 0.0083608388535 0.024626595339 0.012684623984 0.0081282707916 0.025188036031 0.011177479548 0.0082445548225 
0.028773907821 0.010882659022 0.012221201973 0.022271558838 0.0082323309851 0.011184442908 0.026596260813 0.0082447649041 0.017351765016 
0.022408437494 0.015566991454 0.0088773112468 0.022720046422 0.013931236191 0.0079097679426 0.029148286503 0.0082088423217 0.017407038769 
0.022619564888 0.01254089394 0.009667820735 0.022709899948 0.015317449371 0.0079157773881 0.022937381737 0.014599160677 0.0078128604681 
0.023741040751 0.010387867349 0.0083962363205 0.023062804086 0.012264786831 0.0078807755552 0.023284625729 0.012578088447 0.0074917265141 
0.023379001339 0.012599817733 0.0075325156933 0.022926989116 0.014218332098 0.0075121282577 0.022974849508 0.014229351599 0.0075328135399 
0.023228983276 0.013196927102 0.0078981582818 0.022865659263 0.014499611748 0.0075156268814 0.022905542924 0.014508794666 0.0075328646166 
0.022974937736 0.013924898215 0.0077092996648 0.01081729 -0.02126406 0.03805764 0.01081729 -0.03167214 0.03805764 
0.0110339 -0.02897909 0.00784434 -0.00179925 -0.02125509 0.01072322 -6.708e-05 -0.03176664 0.03229471 
0.01102759 -0.02128677 0.00833847 0.0040694 -0.03168478 0.03755421 0.00315622 -0.0212894 0.03615044 
0.01089816 -0.03171269 0.00759638 -0.00148533 -0.0212034 0.01633694 0.00048661 -0.03176418 0.03332484 
0.00426682 -0.02129456 0.03757061 -0.00082094 -0.03187152 0.01742725 -0.00114398 -0.03169866 0.02969511 
0.00149309 -0.03173231 0.03498191 0.00456846 -0.03176759 0.01017334 -0.00140714 -0.03191046 0.01898356 
-0.00186796 -0.02321435 0.01116208 0.00163086 -0.0213187 0.03282966 0.00319653 -0.02348708 0.03645344 
0.00831302 -0.03178982 0.00855346 -0.00170942 -0.02412707 0.01161228 -0.00056049 -0.03014401 0.03064037 
0.00054377 -0.02134255 0.02969696 0.00374858 -0.02184393 0.0369976 0.00993409 -0.03177864 0.0079463 
0.00566471 -0.03178365 0.00965804 0.00207841 -0.03173496 0.01272636 -0.00112289 -0.03127937 0.02961192 
0.00092198 -0.0317283 0.01432572 -0.00109319 -0.02742069 0.02642962 -0.00106548 -0.03019728 0.02904419 
-2.383e-05 -0.02242659 0.02753168 -3.0286785546e-05 -0.02347406055 0.028551153934 0.000535185 -0.025731355 0.031735015 
0.0022494058978 -0.031748474574 0.034132430635 0.0046656912459 -0.031726946958 0.035239404745 -0.00127556 -0.03180456 0.024339335 
-0.0011544894078 -0.031707118324 0.029267339644 -0.001115625947 -0.030335610531 0.028833590168 -0.0011591720519 -0.031520624588 0.029306211476 
[...]
POINT_DATA 21669
SCALARS SDF float
LOOKUP_TABLE default
5.8902e-09 9.31323e-10 4.74883e-09 -2.46971e-09 0.00654498 -1.39698e-09 -1.31709e-09 -0 0.00794678 
3.72529e-09 -3.35793e-09 -4.165e-09 3.2262e-09 1.31709e-09 -4.165e-09 0.000466964 -2.79397e-09 0 
-3.2262e-09 -1.31709e-09 0.00165424 -4.165e-09 -3.35793e-09 -0 9.31323e-10 4.56253e-09 -2.0825e-09 
1.86265e-09 -9.31323e-10 9.31323e-10 0.000137339 -6.1777e-09 2.0825e-09 0 -3.83994e-09 3.75428e-09 
2.0825e-09 1.86265e-09 2.0825e-09 2.79397e-09 0.000135974 -2.79397e-09 9.31323e-10 -2.07353e-09 9.31323e-10 
-4.83929e-09 -9.31323e-10 0.000301725 0.000662982 -2.28127e-09 0 -0.00235979 -4.74883e-09 0.000564268 
2.19489e-05 0.000942837 2.00859e-05 0.000138883 3.22984e-05 7.14306e-05 0.000226388 3.53579e-05 -3.19347e-05 
-0.000167749 -9.794e-05 -6.37508e-05 -0.00171329 9.21075e-06 0.00128487 0.00151835 0.00301832 0.0040585 
0.000502931 0.000834592 0.000953107 0.000759612 0.00196342 0.00314366 0.00307991 0.00308452 0.0023667 
0.00245824 0.00286954 0.000175927 0.00198973 0.00247828 0.00085847 0.00027546 0.000984649 3.21795e-06 
9.09135e-05 4.25643e-06 8.51032e-06 -6.30688e-06 -0.00115474 -9.23194e-06 -2.07673e-06 0.00013791 0.000185444 
0.000187769 4.71197e-05 6.20642e-05 0.000501032 0.00183677 0.00117507 0.00222408 0.00221339 6.67086e-06 
0.0063414 3.42889e-05 0.00288674 0.0114909 0.010081 0.00136985 0.00100181 0.00243294 0.00178466 
0.00222554 0.00226752 0.00178094 0.00152626 0.00414513 0.00606008 0.00308655 0.000276219 0.00286254 
0.00192787 0.00393417 0.00724184 0.00858059 0.00377431 0.0138937 9.74395e-05 0.000135582 0.000214375 
0.000239524 0.000184892 -3.72529e-09 0.000200091 3.55917e-05 0.000219808 0.000209948 6.22721e-05 4.89336e-05 
2.26715e-05 3.96629e-05 1.48898e-05 -0.000390211 -0.000117633 -7.67767e-05 -5.28719e-05 3.70181e-05 5.07575e-05 
5.74457e-05 6.56847e-05 -6.48091e-06 0.000569104 -5.04399e-06 5.32375e-06 1.06435e-05 5.6431e-06 -3.21401e-07 
-2.63418e-09 -3.83994e-09 5.57732e-06 -2.79397e-09 4.01607e-07 2.69989e-07 1.77265e-07 -2.79397e-09 -3.83994e-09 
-0 1.45213e-05 -4.165e-09 -4.26786e-09 -4.26786e-09 1.2421e-05 9.3383e-07 0.0010638 0.00116413 
-6.04003e-07 0.00420513 0.00488282 0.00130172 0.000482748 0.00263851 0.00225989 0.000348375 0.000237767 
0.0008519 0.00048546 1.12889e-05 7.02828e-06 7.98419e-06 6.38396e-06 0.000342589 6.6543e-06 5.31994e-06 
0.000198466 0.00348763 0.00322183 2.0825e-09 1.87714e-09 1.68802e-09 -2.0825e-09 3.97861e-09 2.32831e-09 
-5.45043e-09 2.47502e-09 9.02219e-10 5.2889e-09 8.14907e-10 4.165e-09 -0.000376898 3.66886e-09 -5.02747e-09 
-4.32464e-09 -3.60887e-09 -8.91167e-09 2.0825e-09 -1.87714e-09 -3.95812e-09 -3.95812e-09 -1.62981e-09 4.165e-09 
-5.01533e-09 1.87714e-09 -3.0268e-09 -1.67897e-09 2.03311e-09 -8.14907e-10 1.30422e-09 -0.000160435 -0.000165174 
0.00132028 0.00215063 0.000815099 8.52337e-05 5.1191e-05 6.44748e-05 0.00038588 0.000203193 0.000269265 
-0.00145078 -0.000656817 0.00145175 0.000131546 0.00802876 0.000946202 0.00905926 0.0113099 0.00044478 
0.000578107 0.00100813 0.000965844 0.000481031 0.000476051 0.00102119 0.000239042 0.000458275 0.000148265 
0.00594435 0.00347677 0.00121847 0.000974117 0.000823499 0.00530016 0.00395712 0.0056 2.67701e-05 
0.009127 -0.00169503 -0.000471284 -0.000652327 -0.000988735 -0.00104769 -0.00051485 -0.00108017 -0.00122307 
-0.00019229 -0.000791141 -9.12724e-05 -5.43811e-05 -2.173e-05 -0.000848052 -0.000875998 0.000654518 -0.000954482 
0.00066505 0.000253634 -0.000805742 -0.0022218 -0.00172333 -0.00197067 -0.00205717 -0.00190735 -0.00222002 
-0.00128927 -0.00166825 -0.000756802 0.000854785 -0.000592911 -0.000787776 -0.00108336 -0.00175725 -0.0019357 
-0.000171613 6.20161e-05 0.00079104 -0.000794553 -0.00163768 -6.72557e-05 -0.00222442 -0.000648516 -4.53537e-05 
-0.000121383 -0.000199657 -0.00028697 -2.09655e-05 -8.68757e-05 -0.000132133 -7.47096e-05 0.000630658 0.000110895 
0.000199074 -4.83321e-07 -3.38837e-06 -1.31468e-06 -9.00067e-07 0.000414821 0.000748191 -1.14073e-05 -7.41099e-05 
0.00141558 0.00115077 0.00119178 0.00114498 0.000333281 0.000984368 0.00050715 0.00030086 -6.55285e-05 
-1.71107e-05 0.00615084 0.00167186 -0.000607581 0.000437228 -0.000491715 -0.000429408 0.00616347 -0.00213446 
-0.00200982 -0.00211811 -0.00145809 0.00355484 0.000305076 -0.0012165 -0.00119096 -0.000853883 0.000437238 
-0.000822152 -0.00131943 -0.0011112 -0.00143873 -0.00117741 -0.00139383 -0.000902084 0.000529557 -0.000942415 
-0.000999664 -0.000985166 -0.000565368 0.00207438 -0.000342003 0.00111303 -0.000215854 0.000639016 -0.000315274 
0.000850742 0.000541782 0.000352524 -0.000360219 0.00542857 -4.165e-09 -4.74321e-09 -1.39698e-09 0.00337762 
0.0118592 -4.165e-09 -5.58794e-09 4.165e-09 -9.31323e-10 3.72529e-09 -6.71586e-09 -3.72529e-09 -4.165e-09 
-0 -3.72529e-09 9.31323e-10 3.72529e-09 -1.86265e-09 5.58794e-09 1.86265e-09 -4.26786e-09 1.91997e-09 
-2.79397e-09 -9.31323e-10 -0 0.00295466 -0 -1.86265e-09 -3.72529e-09 -5.96337e-09 -5.96337e-09 
-4.165e-09 0.000352022 3.25963e-09 2.98169e-09 -1.39698e-09 -0 -5.90858e-09 2.63418e-09 -4.165e-09 
4.165e-09 0 0 0.000666405 3.75428e-09 3.25963e-09 4.58623e-09 3.75428e-09 -1.86265e-09 
-0 -9.31323e-10 1.86265e-09 -0 -3.83994e-09 -6.96938e-09 -4.165e-09 4.56253e-09 9.31323e-10 
3.25963e-09 4.165e-09 4.75971e-05 2.9695e-05 3.4834e-05 -5.36499e-05 -0.000193269 0.00191599 8.34143e-05 
0.00209098 6.10574e-05 8.52702e-05 8.79691e-05 4.13452e-05 -0.000109354 1.44944e-05 7.9746e-05 -7.24501e-05 
8.79167e-05 0.00016193 0.000271281 0.000272734 0.00040186 0.000757352 0.000657834 0.00307563 0.00856872 
0.00365846 0.00190007 -2.13079e-06 -0.000279739 -0.000177568 -0.000137375 -0.000118876 -7.73553e-05 -0.000128773 
-6.77189e-05 -0.000142569 -0.000230235 -5.07849e-06 -5.27817e-05 -7.86426e-05 -0.000174531 -7.94911e-05 0.00523797 
0.00953855 0.00400397 0.00372812 0.0001444 0.00218061 0.000894665 0.000248125 -2.19128e-05 0.000614232 
0.000991237 0.0012308 0.00085688 -0.000205512 -6.46766e-05 0.000778917 0.000764883 9.45416e-05 0.000194186 
0.000358803 0.000865342 0.00088861 0.000227505 0.000343317 -4.95861e-05 0.000415066 4.94408e-05 4.38334e-05 
-0.00013706 -0.000108006 -0.000307768 -0.000502678 -0.00121823 -0.00100548 -0.000671878 -3.97743e-05 1.44925e-05 
0.000213644 -0.00062527 -0.000128826 -0.00116505 -0.000817554 -0.000773706 -0.00109939 -0.000799702 -0.00024883 
-0.000239293 -0.000356193 -0.000335 -0.00125192 -0.000787341 -0.000339843 -0.000314383 -0.000369444 -0.000318683 
-0.00040672 -0.00104271 -7.56991e-05 -0.000567316 -0.000165721 -0.000647527 -0.000639879 -0.000436785 0.000926186 
0.00179971 -0.000492798 -0.000115229 0.000960543 0.000575366 -6.3154e-05 -0.000170556 -7.30344e-05 -0.00019724 
-0.000325814 -8.86468e-05 -0.000376779 0.00260541 0.000626423 0.00131946 0.000825215 0.00227504 0.000990096 
0.000373835 6.59621e-05 6.75631e-05 2.38735e-05 -3.97861e-09 4.48488e-05 5.01769e-05 9.46748e-05 2.75852e-05 
5.23239e-05 4.32792e-05 3.31534e-05 8.43436e-05 3.17489e-05 -5.6203e-05 -7.3858e-06 0.00140371 0.00400515 
0.00999976 0.00323314 0.000307011 0.00211178 0.000153067 0.000119022 0.000408083 0.000623767 0.000460795 
8.93874e-05 0.000103788 0.00011127 0.000108812 3.50445e-05 6.01728e-05 0.000278142 8.64413e-05 0.000717457 
1.30068e-05 0.00130996 0.000308241 0.00368453 0.000394656 0.000163579 0.000635468 0.00229908 0.00383178 
0.000289104 0.000675616 0.00196817 0.00117895 0.00125196 -1.93168e-05 -6.43461e-05 -0.000186081 -0.000198272 
-0.000284004 -0.000322709 -0.0002037 -7.99879e-05 -4.24879e-05 -3.90955e-05 -0.000184315 -0.000264832 -7.77133e-05 
-4.10808e-05 0.000639997 6.59716e-05 3.65954e-05 0.000175521 4.22119e-05 6.88973e-05 0.000118687 1.19589e-06 
-2.11128e-05 -3.21468e-06 -0.000128929 2.26452e-06 -1.06372e-05 -7.72726e-05 -2.32831e-09 1.86265e-09 -1.86265e-09 
0.00265548 0.00605783 0.00318289 0.0018151 7.51521e-05 1.5874e-05 0.00187543 0.00285453 0.00314458 
0.00277192 9.7586e-05 9.98839e-06 0.000111906 5.90213e-05 4.046e-05 9.23337e-05 0.000361579 0.00153342 
0.000233338 0.000261851 -0.000958794 -0.000847923 -0.00116012 -0.00123365 -0.0012177 -0.000958642 -0.00109655 
-0.000523445 0.00161239 0.00155327 0.00186217 0.00233618 0.000512232 0.000482361 -0.000785464 0.00174933 
0.00377006 -0.00053949 0.0043999 -0.000766982 0.00330751 0.00357356 0.00322915 0.00590019 0.00131839 
0.000860304 -0.000659711 0.00151482 0.000405274 0.000594101 0.00116813 0.000505203 0.000330144 6.03064e-05 
0.000113448 0.000101686 0.0122249 0.0131852 3.25963e-09 1.67897e-09 0.00241242 5.59278e-09 -0.00159965 
0.00432728 -2.98169e-09 -3.83994e-09 -3.26171e-09 -4.65661e-09 2.9451e-09 -1.91997e-09 4.65661e-09 2.9451e-09 
0.000945913 0.000135615 -1.04125e-09 4.16663e-09 -3.39007e-09 0 3.43967e-09 -9.31323e-10 -0.00014623 
-0.00054761 -0.000730624 0.00214753 0.00312771 0.00345133 0.000109889 1.65989e-05 -6.41931e-05 -7.47542e-05 
-0.000351881 -0.000269213 -0.00029623 -0.000526336 -0.000200281 -6.15528e-05 4.62071e-06 1.83497e-05 6.5889e-05 
0.000722599 0.00395253 0.0012766 0.00079185 0.00167799 0.00202485 0.00489198 0.000983114 0.00121503 
0.00166992 0.00145173 1.07959e-05 5.56901e-05 7.71083e-05 4.29273e-05 4.21198e-05 -0.000171564 1.06093e-05 
7.61554e-06 3.02342e-05 2.49008e-05 9.88358e-05 2.42915e-05 6.11768e-06 -0.000123159 -1.86265e-09 -6.78013e-09 
-0 -5.27992e-09 3.83994e-09 1.8951e-09 4.26786e-09 -3.73256e-09 -0.000471881 -5.58794e-09 8.34301e-09 
3.75428e-09 -1.91997e-09 -6.7199e-09 -5.8902e-09 -6.96938e-09 5.59278e-09 1.86628e-09 -6.71586e-09 3.72529e-09 
5.2735e-09 5.6073e-09 1.86265e-09 6.71586e-09 -0 -5.58794e-09 -8.34301e-09 2.0825e-09 1.81793e-05 
0.000118948 0.000112059 8.27666e-05 0.000358026 0.000227897 8.96249e-05 0.000598042 0.00105011 0.000969051 
0.000332419 0.000350704 5.40042e-06 1.29526e-05 0.00117071 1.31052e-05 0.00131514 6.31943e-06 0.00128053 
0.00124829 1.42059e-05 4.44041e-05 2.69965e-06 -0.000319088 -5.57914e-06 -0.000314522 -0.000251228 0.000887853 
0.000676375 0.0003258 4.94861e-05 0.000265956 0.000362405 5.05266e-05 1.94571e-06 6.24445e-07 1.94219e-06 
6.01923e-07 5.86128e-06 -5.4405e-05 -0.00036108 7.53717e-05 4.01326e-06 -0.000258022 -0.000220708 0.00105344 
7.59893e-05 0.000306727 0.000326027 0.000157617 0.000323279 0.000231717 0.000474228 0.000890922 0.000738926 
0.000457162 0.000880133 0.000818115 0.000498398 0.000393442 0.000208289 0.000724078 0.000747651 0.000496358 
0.000287724 0.000714864 0.000605611 0.000550988 0.000788763 0.000672455 0.000427372 0.000747941 2.09665e-05 
0.000413012 0.000639398 4.55443e-05 4.80604e-05 0.000700685 -1.47732e-05 -1.4248e-05 -0.000102943 3.72801e-06 
-2.47664e-05 -0.000104478 -2.19769e-05 -6.92637e-05 -6.28915e-05 1.59298e-05 0.000113597 0.000164878 7.85625e-05 
0.000101153 3.38974e-05 5.72227e-05 5.39383e-05 3.83465e-05 6.83e-05 5.39114e-05 9.03013e-05 7.24067e-05 
5.8926e-05 4.86791e-05 4.27571e-05 4.72835e-05 1.29427e-06 2.2905e-05 2.50997e-05 5.52555e-06 0.000415736 
0.000232394 0.00030664 0.000476741 0.000497532 0.000473739 0.00049159 0.000484998 -6.08669e-06 -3.38306e-05 
0.000120168 0.000209335 0.000251109 0.00026617 0.000249304 0.0002573 0.000281327 -2.59074e-05 7.06838e-07 
2.02991e-05 0.000403202 0.000479671 0.000286374 0.000178915 9.01355e-05 4.50678e-05 1.79991e-05 1.01191e-05 
4.50976e-05 0.000323587 0.000284199 1.62246e-05 9.39906e-06 2.31313e-06 1.15656e-06 2.25339e-05 4.69676e-06 
5.05266e-05 0.000231766 0.000322389 8.99908e-06 1.34986e-05 0.000200649 0.000111535 6.68143e-05 4.44578e-05 
-1.86265e-09 -1.16415e-10 0.000458081 0.000459898 0.000469256 0.000474733 0.000223851 3.00836e-06 1.46612e-06 
0.000128173 -0.000396715 -0.000221191 -8.07238e-05 -0.00023072 0.00026912 -0.000162599 -0.000100267 3.62805e-05 
-7.20273e-05 -0.000960195 -9.67899e-05 3.05368e-05 4.16038e-05 1.35996e-06 0.000145733 1.34422e-06 2.46785e-05 
3.45417e-05 0.000338158 1.226e-05 0.000204818 1.17216e-05 2.88414e-05 1.45622e-05 3.17751e-05 1.91761e-05 
9.76078e-05 1.65052e-06 1.64262e-06 1.31397e-05 8.03282e-05 4.85158e-05 0.000205844 9.91272e-07 9.72699e-07 
2.62746e-05 4.16285e-07 3.36814e-05 4.23637e-05 1.73391e-06 7.04794e-06 5.53609e-05 3.38008e-05 4.05246e-06 
0.000539997 6.41754e-05 5.32705e-05 5.19836e-05 0.000767649 0.000509248 0.000298869 7.42487e-05 -4.56221e-05 
2.22043e-05 1.85197e-06 -3.87363e-05 -1.59601e-05 3.40319e-06 7.30485e-05 0.000242766 2.44956e-05 0.000257495 
6.76566e-05 5.51798e-05 0.000114086 0.00017132 0.000151216 0.000149279 0.000103238 0.00013293 8.48554e-05 
7.45297e-05 9.12915e-05 0.000160377 0.000108662 0.000142211 9.87348e-05 9.92708e-05 0.000189307 0.000175109 
0.0001478 0.000160143 0.000210615 0.000213494 0.000164964 2.02137e-05 4.70673e-05 0.000182078 0.00023927 
0.000187985 -6.12421e-06 -1.50591e-06 1.11186e-05 0.00014694 0.00015937 4.85686e-05 8.44798e-05 0.000288113 
5.22576e-05 0.000128117 -5.72714e-07 7.18447e-05 0.000811526 0.00107802 1.94865e-05 0.000482715 0.000892397 
0.000772508 0.000254564 0.000217629 0.000348399 0.000964204 0.000868005 0.000502601 0.000760535 0.000965674 
8.68257e-05 0.000256751 0.000853802 0.000575007 0.000324066 1.98481e-05 1.196e-05 0.000185638 0.000313525 
0.000581095 6.50357e-05 0.000435931 -6.14854e-05 0.000140724 0.000134171 -4.83402e-05 5.46948e-05 0.000391836 
0.000352403 -4.31259e-05 0.000186559 0.000179012 -3.12914e-05 8.74314e-05 0.000318893 0.000337554 0.000265466 
6.44429e-05 -1.33944e-05 -1.08128e-05 -5.23039e-05 -3.98177e-05 0.000156591 7.1064e-05 0.000163641 -2.92412e-05 
7.77326e-05 2.55677e-05 -3.39443e-05 -2.27705e-05 0.00020143 0.000209476 0.000103799 -2.62867e-06 -6.40125e-06 
0.000277716 2.79896e-06 0.000152532 0.000268183 0.000429391 2.87862e-05 5.70852e-06 -7.98469e-05 8.32572e-05 
-6.8975e-05 1.66485e-05 8.89765e-05 0.000235547 0.00025681 0.000185891 -8.98353e-05 5.56758e-05 -8.24093e-05 
-4.47872e-06 6.09992e-05 0.000115534 0.000141827 -5.78011e-05 -4.44534e-05 -5.84468e-05 0.000222469 0.000116834 
-7.07196e-05 -5.69264e-05 3.79504e-05 0.000110596 0.000187555 0.000724301 0.000631607 0.00054563 0.000440016 
0.000367699 0.000643575 0.000581908 0.00059186 0.000535599 0.000591101 7.89372e-05 0.000239401 0.000497086 
0.000478368 9.24652e-05 0.000733106 0.000596928 0.000476816 0.000612822 0.000659216 4.94665e-05 7.85756e-05 
0.000696161 9.19137e-05 4.9179e-05 0.000534649 0.000442778 0.00220732 0.00016884 0.000189144 0.000352974 
0.00024182 0.000427638 0.000317832 0.000114295 0.000292344 0.00026306 0.00019972 0.000124508 0.000180005 
0.000216809 0.000413599 0.000283924 0.000372604 0.000455489 0.000492734 0.000725497 0.000656555 0.000819927 
0.000250257 0.000494473 0.00077132 0.000689321 0.000886598 0.000164301 0.000322655 0.000290448 0.000220771 
0.000111711 0.000134174 0.000177792 0.000197958 0.00010654 0.00012679 0.000116693 0.000109212 0.000220552 
0.000182263 0.000122453 0.000162546 0.000214835 0.000145891 0.000193041 0.000249109 0.000375447 0.000359169 
0.000301475 9.75974e-05 0.000262031 0.000178671 0.000235675 0.000144956 0.000142238 0.000267467 -0.000280133 
-0.000367009 -0.000285129 -0.000344543 -0.000164364 5.61288e-06 4.07191e-05 0.000256049 0.000185013 0.00143241 
0.000266491 0.000354367 1.75053e-05 0.000372372 4.51056e-05 0.000195935 0.000886451 0.00035136 0.000733198 
0.000978309 -2.37649e-05 -9.69073e-05 -0.000113931 -6.39982e-05 -1.98236e-05 6.73451e-05 4.46327e-06 -5.08129e-05 
-2.09317e-05 2.4297e-06 -5.73947e-05 2.3487e-06 -1.10226e-05 1.27738e-06 -2.67537e-05 -3.37492e-05 7.36494e-05 
-1.63994e-05 -0.000124218 -0.000124977 -6.41945e-05 -1.21095e-05 5.45782e-05 -5.1451e-06 -8.31446e-05 -8.14118e-05 
-3.91749e-05 -1.80944e-06 9.9226e-07 -2.07654e-05 -8.55418e-06 1.82134e-06 4.74269e-05 3.79313e-05 -2.90836e-05 
-2.7865e-05 -2.45072e-05 7.39498e-05 1.56468e-06 -3.27459e-05 -1.34904e-05 2.87608e-06 4.65766e-05 -3.96849e-05 
-3.66612e-05 8.60135e-05 1.13574e-06 -2.37584e-05 -9.7866e-06 2.08581e-06 1.56089e-06 8.48155e-07 -1.77683e-05 
-7.3206e-06 3.12023e-05 -1.87866e-05 -0.000192857 -4.38764e-05 -0.00148385 6.14587e-05 0.000379472 0.000399496 
0.000448039 6.42533e-05 7.08956e-05 0.000283844 0.000461574 0.000358364 3.0256e-05 3.68333e-05 0.000218374 
0.000369899 2.71918e-06 -5.68542e-05 -2.34208e-05 4.99626e-06 3.93247e-06 -1.84433e-05 2.14115e-06 -4.47755e-05 
-1.08165e-05 -9.76705e-05 -5.15877e-05 -1.44555e-05 3.34472e-06 -6.99005e-05 -2.87947e-05 6.14113e-06 1.71033e-06 
-3.57412e-05 -1.47222e-05 3.13839e-06 1.42487e-06 -2.97511e-05 -1.22562e-05 2.6135e-06 1.95387e-06 -2.2262e-05 
-9.17256e-06 1.06169e-06 1.69128e-06 -1.92652e-05 -7.93832e-06 9.21908e-07 1.42868e-06 -6.70443e-06 -1.62722e-05 
7.76571e-07 0.000464574 0.000479371 0.000273748 0.000290854 1.12281e-05 2.67359e-06 0.000169087 0.000300891 
0.000255054 -5.81894e-06 -1.56878e-05 0.00013635 0.000246019 7.51641e-05 -7.5692e-05 6.0839e-06 6.97005e-05 
3.79876e-05 -9.19095e-05 -1.90626e-05 4.30485e-05 9.89156e-07 -0.000114995 -4.99484e-05 5.50666e-06 -2.62599e-05 
-0.000127586 -7.08623e-05 -2.22558e-05 2.21651e-06 -2.52571e-05 -1.04043e-05 1.20549e-06 2.86485e-06 -5.9872e-05 
-2.46638e-05 5.26075e-06 4.73178e-06 -2.21754e-05 2.57349e-06 -5.38346e-05 3.66766e-06 -1.72015e-05 1.99702e-06 
-4.17541e-05 2.28621e-06 -4.77932e-05 -1.96881e-05 4.20061e-06 -9.79955e-06 -6.31427e-06 -4.53822e-05 -8.9541e-05 
-4.89532e-07 -7.34755e-05 -3.29699e-05 2.69256e-06 3.17437e-06 -6.6395e-05 -2.73532e-05 5.83348e-06 1.4928e-06 
-3.12472e-05 -1.28724e-05 2.74357e-06 1.34928e-06 -2.82524e-05 -1.16385e-05 2.48127e-06 7.40952e-07 -1.55219e-05 
-6.39648e-06 1.36025e-06 0.000152182 6.28784e-05 -4.40772e-05 0.000145382 0.000175101 7.9244e-05 -3.55563e-05 
0.000167803 0.000129179 0.000122881 4.64492e-05 -5.26333e-05 0.000102905 2.72976e-05 -6.2203e-05 9.69266e-05 
0.000418774 0.000438117 0.000333545 0.000353165 0.000457557 0.000470925 0.000285118 5.34152e-05 5.90719e-05 
0.00042562 0.000267477 5.78983e-05 6.24946e-05 0.000438655 0.000380783 0.000392818 0.000234742 3.95407e-05 
4.54552e-05 0.000335944 0.000202005 2.11886e-05 2.84155e-05 0.000346981 -1.53204e-05 -5.77945e-05 -0.000105802 
-1.91128e-05 3.27095e-06 -1.53384e-05 -3.72358e-05 1.7819e-06 1.6381e-06 -1.41082e-05 -3.42446e-05 3.00649e-06 
1.02789e-06 -8.86461e-06 -2.15117e-05 1.88978e-06 1.75573e-06 -8.24443e-06 -2.00173e-05 9.54467e-07 1.62501e-06 
-7.63073e-06 8.84414e-07 -1.85208e-05 1.49464e-06 -7.01233e-06 8.12484e-07 -1.70181e-05 -2.13289e-05 -1.71845e-05 
-6.75313e-05 -0.00012628 -2.43275e-05 -7.02039e-05 -2.84204e-05 -0.000122063 3.53358e-06 1.92359e-06 -1.65779e-05 
-4.02457e-05 2.06889e-06 -1.78252e-05 -4.3264e-05 3.80021e-06 0.000232642 0.000253643 0.000471995 0.000261735 
0.000488293 0.000477202 0.0002533 5.54009e-05 0.000494562 0.000190221 9.56132e-05 -2.70357e-05 0.000198017 
0.000212642 0.000220934 0.000111981 -1.85093e-05 -2.93536e-05 1.0998e-06 2.02019e-06 -9.47863e-06 -2.30104e-05 
0.000466917 0.000482188 0.000269959 0.000462235 0.000476555 0.000277539 0.000257101 0.000144444 -1.60639e-06 
-1.11494e-05 0.000266385 0.000350935 0.000243727 0.000128256 0.000234935 -1.00335e-05 -2.02242e-05 1.06415e-05 
1.5306e-05 -4.18931e-05 -0.000108971 -8.66472e-06 -5.80109e-05 -0.000121019 -4.28706e-06 1.24329e-06 -1.07162e-05 
-2.60074e-05 2.28461e-06 2.15237e-06 -1.00985e-05 1.17357e-06 -2.4509e-05 4.59768e-06 2.50194e-06 -2.15536e-05 
-5.23265e-05 2.3584e-06 4.33104e-06 -2.03121e-05 -4.93032e-05 2.21275e-06 -1.90663e-05 -4.62836e-05 4.06656e-06 
2.41685e-06 -1.13284e-05 1.31519e-06 -2.75039e-05 0.000312477 0.000177362 0.000302193 0.000289302 0.000279519 
0.00016081 7.6478e-05 1.13671e-05 8.20714e-05 6.29231e-05 6.8257e-05 8.0462e-07 5.20229e-05 -1.16776e-05 
4.68316e-05 2.91434e-05 -2.64474e-05 3.40741e-05 2.93645e-06 5.39301e-06 -2.52875e-05 2.79296e-06 -2.40423e-05 
5.12637e-06 4.86217e-06 -2.28009e-05 -5.53427e-05 2.64758e-06 -2.81704e-06 4.40932e-07 -3.60743e-05 1.83897e-06 
-2.98673e-05 4.94491e-06 3.25754e-06 5.98854e-06 -2.80726e-05 3.09335e-06 -2.66289e-05 -6.46434e-05 5.67846e-06 
1.52873e-06 2.80983e-06 -1.31822e-05 1.45716e-06 -1.2566e-05 2.67976e-06 2.54755e-06 1.3871e-06 -1.19464e-05 