# vtk DataFile Version 5.1
vtk output
ASCII
DATASET UNSTRUCTURED_GRID
POINTS 3886 double
-0.02972365357 0.00034440349555 0.043431926519 -0.029439833015 0.00066672777757 0.042666163296 -0.029719000682 0.0018060000148 0.043164499104 
-0.029095500708 -0.0017298776656 0.043817877769 -0.029265444726 -0.00076388957677 0.042934656143 -0.029053065926 -0.00065234565409 0.045121658593 
-0.029292447492 0.0017174570821 0.045245718211 -0.029373973608 0.0028884904459 0.042343404144 -0.029249249026 0.0034799210262 0.043474145234 
-0.029465414584 -0.00078603636939 0.035152520984 -0.02960578911 -0.002094034804 0.034491624683 -0.029461000115 -0.0010920000495 0.033608999103 
-0.029191643 0.00096998695517 0.03337995708 -0.029275294393 0.0012121757027 0.035046197474 -0.029106000438 -0.0021575000137 0.036596499383 
-0.029439825565 -0.0026545110159 0.035294957459 -0.028900843114 -0.00018763233675 0.036567240953 -0.029318066314 -0.0021238878835 0.033671092242 
-0.029362300411 -0.0026918353979 0.034139011055 -0.029233692214 -0.0030022691935 0.034681238234 -0.028269082308 0.0018518569414 0.042136453092 
-0.028241341934 0.00099765777122 0.042103860527 -0.028347259387 -0.00024743494578 0.042460851371 -0.028730979189 -0.0019892717246 0.042944066226 
-0.028768077493 -0.0014889767626 0.033263921738 -0.028617179021 0.00026798975887 0.033110171556 -0.029063215479 0.0041790888645 0.042624853551 
-0.028658274561 0.0044626980089 0.046199351549 -0.028407465667 0.0052816146053 0.043967355043 -0.029165500775 0.0023904999252 0.033780999482 
-0.029079081491 0.0026199505664 0.035101193935 -0.028838761151 0.0025069746189 0.036056146026 -0.028618102893 0.0029914902989 0.041988190264 
-0.02869743295 0.0039027708117 0.041816703975 -0.028606269509 -0.003264329629 0.035942960531 -0.029002908617 -0.0029289645609 0.036262512207 
-0.028835350648 -0.0026020528749 0.033778004348 -0.028622921556 0.00045600853628 0.047494161874 -0.028316127136 0.0027395810466 0.048579137772 
-0.028841177002 0.0026607050095 0.033573489636 -0.028685504571 0.0030248253606 0.034741844982 -0.028780000284 0.0018990000244 0.033052001148 
-0.028201848269 -0.0014669648372 0.047186154872 -0.028234602883 -0.0024936425034 0.045181822032 -0.028243442997 0.0032954271883 0.03609752655 
-0.028078889474 -0.0030195245054 0.037417829037 -0.028023645282 -0.00077071686974 0.037943147123 -0.027775371447 -0.0019682864659 0.0384798944 
-0.028602754697 -0.0026297764853 0.043877702206 -0.028551634401 -0.0030798339285 0.034666899592 -0.028240500018 -0.0024367501028 0.034127499908 
-0.028129000217 -0.0010689999908 0.033420000225 -0.028338000178 0.0027930000797 0.033851999789 -0.027816057205 0.0028663645498 0.034913443029 
-0.02766886726 0.0033961709123 0.035871166736 -0.027748052031 -0.0020399794448 0.042214829475 -0.027936514467 -0.0033671462443 0.043271437287 
-0.027628270909 0.0035979978275 0.041724678129 -0.028349693865 0.0050926171243 0.041810747236 -0.027846259996 0.0045489352196 0.041509214789 
-0.027451327071 0.00091071444331 0.050822746009 -0.02816000022 0.0018850000342 0.03334800154 -0.028260499239 0.0028975000605 0.036781001836 
-0.027933128178 0.00088937190594 0.037730395794 -0.02787274681 -0.0028079438489 0.035806119442 -0.027437718585 -0.0034151300788 0.037219654769 
-0.027599938214 0.0050314539112 0.05009008199 -0.02689367719 0.0070756394416 0.049052156508 -0.027871990576 0.0062034488656 0.04559969157 
-0.02791801095 -9.8373297078e-05 0.033643800765 -0.027267536148 -0.0028628304135 0.038202658296 -0.028418786824 -0.00073412287747 0.039985250682 
-0.028354736045 0.0010664176662 0.040426257998 -0.028305329382 -0.00089097267482 0.04135536775 -0.027892049402 -0.002101194812 0.040659096092 
-0.02769526653 0.0020142016001 0.03430557996 -0.027790432796 0.0022813891992 0.041323386133 -0.027690283954 0.0021618786268 0.038812536746 
-0.027613727376 0.0026375392918 0.0400480479 -0.026752080768 0.0034676208161 0.041186209768 -0.027414957061 0.0030641166959 0.037405431271 
-0.027623945847 0.0019621651154 0.037728376687 -0.027512747794 -0.0017439263174 0.035748355091 -0.027002947405 -0.0032567183953 0.046938259155 
-0.026894334704 0.0035530114546 0.037020932883 -0.027543311939 -0.00017397695046 0.035427950323 -0.026460496709 -0.0042512686923 0.045003034174 
-0.026666577905 -0.0043456903659 0.043058108538 -0.02690099366 -0.0031063582283 0.04203665629 -0.027164844796 -0.0030513636302 0.036673553288 
-0.027172822505 0.00636018347 0.041558731347 -0.027602516115 0.0061467159539 0.042907338589 -0.027180500329 0.0057970001362 0.041191998869 
-0.026598218828 0.0034482246265 0.03955283761 -0.026706220582 -0.0015840767883 0.050335142761 -0.027251813561 -0.0027389060706 0.039308950305 
-0.026753403246 -0.0032636525575 0.040350880474 -0.027478879318 0.0012244293466 0.035158544779 -0.026770295575 0.0038072310854 0.053208000958 
-0.02733470127 0.0067684482783 0.044359054416 -0.025895325467 0.0083460304886 0.04820709303 -0.026983933523 0.0027171717957 0.035896975547 
-0.026120314375 -0.0034314277582 0.038365572691 -0.026142993942 -0.003491910873 0.037221435457 -0.026098998263 -0.0030266866088 0.036849871278 
-0.026930784807 0.0029133344069 0.037946302444 -0.026261499152 0.003424017923 0.036716666073 -0.026726964861 -0.0011360086501 0.036255002022 
-0.026676466689 0.0012440562714 0.036235321313 -0.025881648064 0.0035589602776 0.037915937603 -0.025569500402 0.0064037498087 0.040849499404 
-0.026525406167 0.0040789665654 0.041440315545 -0.025451999158 0.0045699998736 0.041157998145 -0.025268478319 0.0040783490986 0.040715079755 
-0.024929005653 -0.0048667639494 0.042480077595 -0.025653135031 -0.0040733860806 0.042121421546 -0.025223361328 -0.0050087352283 0.043815508485 
-0.026449481025 0.0064025586471 0.052411973476 -0.025640118867 0.008039355278 0.05143353343 -0.025858607143 0.0082174371928 0.045194350183 
-0.026390684769 0.007370185107 0.043297950178 -0.025667881593 0.0019577776548 0.055939529091 -0.025714857504 -0.00095146714011 0.053817562759 
-0.02530220896 -0.0030081162695 0.051011227071 -0.024924011901 -0.0043397117406 0.048204448074 -0.026110062376 0.0028669410385 0.036310587078 
-0.025640187785 -0.0038486104459 0.040968481451 -0.025222562253 -0.0038791308179 0.03972100839 -0.025952801108 -0.0013988676947 0.036451824009 
-0.025672437623 0.00023115007207 0.036321569234 -0.025524688885 0.0038993032649 0.039523471147 -0.025723055005 0.0016136643244 0.036304805428 
-0.024848269299 -0.0035686916672 0.037223216146 -0.025134274736 -0.0017716381699 0.036317463964 -0.024843575433 -0.0029954195488 0.036532860249 
-0.025381950662 0.0043474342674 0.056813996285 -0.025434363633 0.0064856661484 0.055840868503 -0.024898394942 0.0034563899972 0.036961838603 
-0.023694589734 0.0034855369013 0.038046911359 -0.024798164144 0.0038575539365 0.038853455335 -0.024938993156 0.0021623249631 0.036076717079 
-0.023999072611 0.0028292748611 0.036137599498 -0.024652596563 -0.0036597279832 0.038509018719 -0.023371558636 0.00035524612758 0.05921395123 
-0.023659346625 -0.0018124795752 0.056514773518 -0.024077583104 -0.0028338960838 0.05421552062 -0.025050561875 -0.00063395616598 0.036076672375 
-0.024806531146 0.00073557329597 0.03577785939 -0.023771135136 0.002856960753 0.059409953654 -0.024561829865 0.0067954822443 0.057372126728 
-0.024624072015 0.0055906851776 0.058132909238 -0.024309623986 0.007875341922 0.05660109967 -0.024960000068 0.0081329997629 0.054308000952 
-0.024042848498 0.0092453621328 0.045266643167 -0.023716844618 0.01001826115 0.048585832119 -0.02386283502 0.0086299469694 0.043349381536 
-0.023917075247 -0.0052363905124 0.045966345817 -0.024364816025 -0.0041746222414 0.041590757668 -0.024433258921 0.005844022613 0.040953870863 
-0.023882571608 0.0067565115169 0.041021544486 -0.025379000232 0.0070079998113 0.041173998266 -0.023809572682 -0.0052539380267 0.043741174042 
-0.02404168807 0.0050663216971 0.041231874377 -0.024264957756 0.0042791287415 0.040808964521 -0.024407532066 0.0092083476484 0.051712840796 
-0.023424932733 0.0079678334296 0.042459558696 -0.023993480951 0.0040092845447 0.039734892547 -0.023409115151 -0.0037806276232 0.03983778134 
-0.022533092648 -0.0049891988747 0.042349193245 -0.02372550033 -0.0029235000256 0.036439999938 -0.023754552007 -0.0025493821595 0.03591118753 
-0.024533646181 -0.0020130909979 0.035906840116 -0.023600358516 0.008974313736 0.054449982941 -0.022300250828 -0.0036479174159 0.05572964251 
-0.023855755106 -0.0038476525806 0.052375819534 -0.023614566773 -0.0032946001738 0.037993498147 -0.023759249598 0.0013207499869 0.035018250346 
-0.023626562208 0.0068943821825 0.059154845774 -0.023291762918 0.0044057075866 0.060217227787 -0.02385500446 -0.0043758256361 0.050217036158 
-0.024280263111 0.00015267777781 0.035073086619 -0.024508031085 -0.00047477023327 0.035452157259 -0.024294991046 -0.0012810893822 0.035227101296 
-0.02405330725 -0.00092310528271 0.03446874395 -0.024097442627 -0.00024356310314 0.034270275384 -0.022927541286 0.008158987388 0.058530230075 
-0.023260617629 0.0084944553673 0.056582070887 -0.023208132014 0.0058095348068 0.041338261217 -0.022373842075 -0.0052056782879 0.043998476118 
-0.021567299962 -0.0051662386395 0.046773478389 -0.021840400994 -0.0051611615345 0.045266170055 -0.022904373705 -0.0050325701013 0.048389721662 
-0.022610506043 0.0099797621369 0.046256039292 -0.022485965863 0.009124416858 0.044307466596 -0.02253071405 0.002648018999 0.037485543638 
-0.022607803345 0.0022216872312 0.036397270858 -0.022900177166 0.001520205522 0.035186316818 -0.023650862277 -0.0014359718189 0.034685321152 
-0.023590000346 -0.00049399997806 0.034042999148 -0.02367801778 0.00030516457628 0.034176301211 -0.02270263806 0.0069994973019 0.042005483061 
-0.021662853658 0.0024916965049 0.062082409859 -0.022310819477 -0.0038808514364 0.041312534362 -0.021214000881 -0.0028289998882 0.040787000209 
-0.022372124717 -0.0030387369916 0.038690455258 -0.022282002494 0.010460410267 0.050703760237 -0.022318372503 -0.0022599676158 0.058628447354 
[...]
POINT_DATA 3886
SCALARS SDF float
LOOKUP_TABLE default
8.73115e-11 -3.72938e-09 -9.3314e-10 5.32393e-05 5.82077e-11 5.27639e-09 -4.1715e-09 1.32734e-09 1.87714e-09 
4.16663e-09 -1.86265e-09 0 1.86355e-09 -0 -0 -2.32831e-10 -1.86469e-09 -3.73256e-09 
1.98931e-09 1.91997e-09 0 -1.16415e-10 -4.07454e-10 1.86265e-09 -4.33349e-05 -2.91038e-11 4.65661e-10 
-4.65661e-10 -7.26804e-05 -8.51691e-10 -4.165e-09 4.165e-09 -0.000362979 3.79021e-09 -1.86265e-09 0 
-2.59891e-09 -3.7254e-09 -1.86265e-09 9.07213e-05 -1.91997e-09 -0 -4.19095e-09 2.32831e-10 1.98931e-09 
-0 5.82077e-11 1.86265e-09 1.91997e-09 4.65661e-10 -1.86265e-09 0 -0 0.00011305 
-4.65661e-10 1.49765e-09 -2.32831e-10 3.79021e-09 -4.65661e-10 -0.000354744 3.73256e-09 1.65049e-09 2.32831e-10 
9.01823e-05 -1.87714e-09 -1.36284e-09 -0 0 1.91997e-09 9.13908e-10 -0 -1.86628e-09 
2.04622e-10 -0 -1.91997e-09 0 0 -2.32831e-10 1.51606e-09 2.32831e-10 9.31323e-10 
1.87714e-09 1.16415e-10 2.32831e-10 5.49564e-10 -2.91038e-11 -4.65661e-10 -4.65661e-10 -2.32831e-10 -1.98931e-09 
-0.000112228 0.000110515 -3.75428e-09 -0 -4.1715e-09 4.65661e-10 -4.65661e-10 -1.86265e-09 1.87714e-09 
0 4.165e-09 -5.82265e-06 -3.73256e-09 -5.4027e-05 1.98931e-09 -6.98492e-10 -5.23439e-05 -3.49246e-10 
-1.86628e-09 2.32831e-10 -3.72529e-09 0.000148254 0 4.65661e-10 9.31323e-10 -4.65661e-10 1.91997e-09 
0 4.165e-09 9.31323e-10 -4.06066e-05 -1.87714e-09 -3.74163e-09 4.65661e-10 -0 7.22961e-10 
0.000109224 0 -0 4.17962e-09 -1.86265e-09 1.16415e-10 0 3.49246e-10 -0 
3.72529e-09 -1.86265e-09 1.91997e-09 -4.65661e-10 1.87714e-09 -0.000118266 -6.98492e-10 -2.32831e-10 -5.82077e-11 
4.22317e-09 2.32831e-10 0.0001948 4.1715e-09 -1.86265e-09 8.74567e-05 1.91997e-09 -0 0 
0 -0 -9.31323e-10 1.86265e-09 4.65661e-10 3.75428e-09 -0 0 -3.72529e-09 
9.31323e-10 -4.65661e-10 -0 -0 0 -3.73256e-09 -9.31323e-10 0 -4.65661e-10 
0 0 0 -8.03379e-05 0 4.65661e-10 4.19095e-09 -0 -3.75428e-09 
-0.000239544 -1.86469e-09 -1.8951e-09 -3.49246e-10 -1.05099e-09 -7.33474e-10 -0 -4.19095e-09 -4.165e-09 
4.65661e-10 6.36257e-05 -3.72529e-09 0 3.72529e-09 1.87714e-09 2.32831e-10 -4.65661e-10 4.65661e-10 
-1.85744e-09 4.07454e-10 -1.86265e-09 4.1715e-09 -6.98492e-10 -0 9.31323e-10 -3.72529e-09 -2.32831e-10 
-1.86543e-09 3.72711e-09 4.65661e-10 -0 -1.8951e-09 1.91997e-09 1.86265e-09 -4.165e-09 0.00028199 
6.00287e-05 1.50331e-09 -2.0825e-09 -0 4.65661e-10 3.73437e-05 0 8.32414e-05 -1.86265e-09 
-7.69399e-09 -4.65661e-10 -5.61764e-05 1.74623e-10 -3.72529e-09 -1.86265e-09 9.31323e-10 2.32831e-10 -7.36483e-05 
4.165e-09 -0 6.98492e-10 0 -1.86265e-09 4.65661e-10 0 3.73256e-09 4.65661e-10 
-9.31323e-10 3.72529e-09 -1.86265e-09 -3.83994e-09 1.95148e-09 -0.000231842 0 -4.165e-09 -0.000283287 
0 0 1.91997e-09 -2.76234e-05 -3.99286e-05 -2.32831e-10 4.65661e-10 -4.65661e-10 0 
-2.03311e-09 -0 3.72529e-09 3.83994e-09 0 -8.27464e-10 -0 -0 -8.52977e-05 
-3.73256e-09 4.65661e-10 -1.93263e-09 -2.32831e-10 -3.79021e-09 -4.65661e-10 3.72529e-09 -0 -4.65661e-10 
3.72529e-09 3.72529e-09 3.72529e-09 -4.165e-09 6.34355e-10 0.000117635 1.91997e-09 -3.72529e-09 1.91997e-09 
-4.65661e-10 -3.49246e-10 8.07686e-05 -2.32831e-10 -1.46455e-09 7.69399e-09 -1.86265e-09 -0 3.72529e-09 
7.73615e-09 -1.86265e-09 3.49246e-10 -1.91997e-09 0 5.66264e-10 2.32831e-10 9.31323e-10 2.32831e-10 
-2.03727e-10 2.0825e-09 -0 0.000114831 -5.44024e-05 9.31323e-10 -2.32831e-10 -1.86628e-09 3.49246e-10 
-9.31323e-10 1.86265e-09 -2.32831e-10 0.000180364 -3.75428e-09 -0 -1.91997e-09 -0 0 
3.72529e-09 0 -0.000216525 0 0.000138386 -6.78041e-10 0.000140027 -3.72711e-09 -1.91997e-09 
4.19095e-09 0.000133683 -0 4.65661e-10 -0 -3.72529e-09 -2.32831e-10 -4.65661e-10 3.75428e-09 
-0 1.4546e-05 5.73531e-05 2.32831e-10 -3.49246e-10 -1.16415e-10 0.000101216 -3.72529e-09 -2.14625e-05 
-3.75428e-09 -1.86265e-09 -2.0825e-09 -0 -2.19652e-09 -8.09925e-05 4.65661e-10 -4.65661e-10 -0 
9.31323e-10 -2.0825e-09 1.47836e-09 1.91997e-09 0 0 1.98931e-09 -3.72529e-09 2.32831e-10 
1.91997e-09 4.65661e-10 -4.65661e-10 4.65661e-10 4.65661e-10 -1.91997e-09 -1.91997e-09 0 -6.98492e-10 
-2.0825e-09 1.16415e-10 -0 -4.65661e-10 -1.98931e-09 2.32831e-10 6.76468e-10 0.000107065 -5.31543e-10 
-0 3.75428e-09 7.54868e-05 4.19095e-09 0 3.72529e-09 0 0 9.31323e-10 
1.86265e-09 9.31323e-10 3.72529e-09 -4.65661e-10 4.65661e-10 0 3.73256e-09 -0 3.72529e-09 
1.91997e-09 0 -6.98492e-10 -0 -7.68341e-09 0 -0 -0.000565088 -2.32831e-10 
-9.31323e-10 -9.31323e-10 0 0 0 -0 -4.65661e-10 -0 -2.0825e-09 
-6.1628e-10 -0 -3.72529e-09 9.31323e-10 -6.36522e-10 -0 2.82181e-05 -4.36557e-11 -0.000131458 
1.93404e-09 0.000242024 -0 -2.09871e-10 -3.29272e-10 5.82077e-11 -0.000135763 2.32831e-10 1.16415e-10 
-1.07428e-10 1.30156e-10 1.64636e-10 -2.60313e-10 1.89153e-09 -3.72711e-09 0 -1.86265e-09 1.88525e-09 
2.91038e-10 -3.49246e-10 0 -4.65661e-10 1.16415e-10 4.65661e-10 1.86628e-09 1.45519e-10 2.0825e-09 
0 2.32831e-10 9.31323e-10 2.32831e-10 -1.16415e-10 0 -2.64149e-09 -2.0825e-09 0 
-0 0.00031035 0.000112033 5.20625e-10 -1.16415e-10 -1.86265e-09 1.86265e-09 7.45058e-09 0 
-7.45081e-09 -1.87714e-09 8.31506e-05 8.86994e-05 9.06319e-05 -1.16415e-10 4.65661e-10 -0.000103758 -4.65661e-10 
-0 1.95148e-09 4.13488e-05 -4.65661e-10 -0 -1.16415e-10 -0 1.91997e-09 -0 
-0 7.45058e-09 -4.65661e-10 -1.39698e-09 0 -3.72529e-09 -4.26786e-09 -0 0 
-2.63418e-09 2.91038e-10 0 7.46512e-09 4.65661e-10 -0 -0 0.000608118 -1.16415e-10 
0 -0 1.86265e-09 0 1.86265e-09 0 9.39652e-10 2.58196e-05 -1.16497e-09 
-2.32831e-10 4.65661e-10 0 -0 -9.31323e-10 -3.72529e-09 -0.000136082 -4.56253e-09 2.0825e-09 
0 6.58544e-10 -0 0 0 9.59985e-10 -4.19095e-09 -0 -0 
-2.09548e-09 5.82077e-11 1.87714e-09 1.86628e-09 -9.31323e-10 -2.00865e-05 -1.91997e-09 -2.32831e-10 4.73776e-10 
2.91038e-11 8.71855e-05 0.000343642 -0.000271529 -0 0 1.86265e-09 5.2437e-05 0 
-4.65661e-10 -1.87714e-09 -7.45058e-09 5.82077e-11 -5.16593e-10 -0 -0 -5.82077e-11 -0 
-0 -1.16415e-10 -0 4.48992e-10 -2.32831e-10 3.49246e-10 9.31323e-10 2.32831e-10 -1.86265e-09 
0 0 5.82077e-11 7.365e-10 6.69527e-05 4.65661e-10 0 9.31323e-10 -1.87714e-09 
-1.87714e-09 -2.32831e-10 0 0.000103798 -2.32831e-10 1.16415e-10 4.65661e-10 3.75428e-09 -3.86807e-09 
0.000275562 6.28988e-05 4.65661e-10 0 1.91997e-09 1.86265e-09 1.91997e-09 4.65661e-10 -7.46512e-09 
0 0 -4.65661e-10 0 0 -0 -0 3.83994e-09 -3.72529e-09 
-9.31323e-10 -4.65661e-10 -0.00015624 -1.86265e-09 2.32831e-10 -4.65661e-10 1.90669e-09 -0 9.31323e-10 
1.45565e-10 9.31323e-10 -2.0825e-09 0 -9.31323e-10 -0 -9.31323e-10 1.91997e-09 -1.86265e-09 
-0 -1.87714e-09 0 -2.32831e-10 -0 0 1.31709e-09 1.87714e-09 -7.45058e-09 
-1.86265e-09 -7.45058e-09 -1.86265e-09 7.52299e-09 0.000367163 1.86265e-09 1.16415e-10 1.86265e-09 2.64445e-09 
1.87714e-09 -0 0.000102051 1.74623e-10 1.16415e-10 0 1.20526e-05 -9.31323e-10 -0 
0 -1.84069e-10 -2.91038e-11 9.31777e-10 -9.61748e-10 9.31323e-10 -4.65661e-10 1.91997e-09 0 
1.31709e-09 1.31709e-09 -0 -1.45519e-10 1.04125e-09 -9.31323e-10 2.49467e-10 1.04125e-09 -2.13393e-09 
0 4.65661e-10 0 -9.31323e-10 5.55216e-05 -1.70326e-10 -0 -0 4.65661e-10 
1.95148e-09 0 -9.59985e-10 9.31323e-10 -7.51059e-09 -0 3.95127e-09 0 -2.63418e-09 
-9.31323e-10 -0 -0.000116718 4.71311e-10 2.00353e-10 1.89175e-10 -9.47552e-10 -3.59995e-10 1.86265e-09 
1.16415e-10 -0.00020679 -1.16415e-10 0 0 1.86265e-09 0 -0 0 
-3.72529e-09 0 -0 1.54689e-10 0 4.6657e-10 -0 -9.31323e-10 6.58544e-10 
-0 -0 4.07454e-10 2.11504e-10 0.000362526 -1.91997e-09 -2.32831e-10 0 -4.59539e-10 
-4.65661e-10 1.31709e-09 1.86265e-09 0 -1.39698e-09 9.31323e-10 1.04125e-09 1.04125e-09 1.31709e-09 
-0 -0 1.04125e-09 -1.91997e-09 2.13869e-10 -9.59985e-10 -7.50947e-09 2.54172e-05 4.65661e-10 
-2.32831e-10 2.32831e-10 9.31323e-10 3.95127e-09 9.31323e-10 1.86265e-09 -0 -1.91997e-09 9.31323e-10 
1.91997e-09 -9.31323e-10 -4.31741e-10 -1.87714e-09 1.04125e-09 -4.65661e-10 0 9.31323e-10 -1.31709e-09 
-9.31323e-10 0 -4.2476e-10 -0 1.31709e-09 0 -7.30959e-05 -0 9.31323e-10 
-9.31323e-10 -7.90673e-10 9.83675e-05 -1.91997e-09 -0 -9.3314e-10 -1.16415e-10 0 -0 
2.80908e-09 -7.96063e-09 -7.50879e-09 4.87788e-10 -1.04125e-09 1.04125e-09 0 -0 1.31709e-09 
0 -3.75428e-09 -9.31323e-10 -1.04125e-09 -9.31323e-10 1.49984e-05 0 4.65661e-10 -1.86265e-09 
-0 3.49246e-10 -1.86265e-09 -0 -9.31777e-10 4.65661e-10 0 -0 -3.86807e-09 
3.75428e-09 -9.31323e-10 1.31709e-09 0 1.04125e-09 5.82077e-11 -9.31323e-10 -7.45058e-09 -7.52299e-09 
9.31323e-10 9.31323e-10 -0 5.82077e-11 9.3857e-10 -9.3314e-10 9.31323e-10 9.31323e-10 -9.31323e-10 
-1.5722e-05 -0 -9.31323e-10 -9.31323e-10 -4.65661e-10 0 -0 -0 0 
4.65661e-10 -1.86628e-09 -0 0 2.58353e-09 -9.59985e-10 7.45422e-09 -9.3314e-10 -9.31323e-10 
-1.86265e-09 2.91038e-11 9.31323e-10 6.58544e-10 -0 -4.65661e-10 9.31323e-10 8.00223e-10 5.41623e-06 
-7.50856e-09 -9.31323e-10 4.65661e-10 1.39698e-09 9.31323e-10 -4.65661e-10 -0 2.21145e-09 7.46512e-09 
2.0825e-09 -9.31323e-10 7.68341e-09 -0 1.74623e-10 -9.31323e-10 -3.83994e-09 -9.59985e-10 5.82077e-11 
1.87588e-05 -4.65661e-10 -9.31323e-10 0 7.62676e-09 0.000611526 -0.000214133 9.31323e-10 1.91997e-09 
-1.04125e-09 -7.64654e-06 1.04125e-09 9.31323e-10 -3.15021e-09 0 -1.89692e-05 -0 -5.31404e-05 
-9.31323e-10 1.04125e-09 9.31323e-10 -0.000843108 9.3314e-10 -9.3314e-10 0.000168955 -1.31709e-09 -7.46512e-09 
9.31323e-10 -1.04125e-09 1.06696e-09 2.32831e-10 7.52299e-09 0 0 4.39414e-05 -1.31709e-09 
-7.50856e-09 1.16415e-09 -2.32831e-10 9.59985e-10 -9.31323e-10 -1.04125e-09 4.65661e-10 -4.65661e-10 -4.65661e-10 
1.04125e-09 0 1.86265e-09 -9.31323e-10 7.50856e-09 -3.232e-09 -7.45058e-09 7.45058e-09 -0 
-9.31323e-10 -0 0 9.31323e-10 -7.50856e-09 -4.32016e-05 3.63798e-11 0 -1.31709e-09 
-0 7.13489e-10 0 -9.31323e-10 4.65661e-10 -7.45058e-09 0 -9.59985e-10 -4.65661e-10 
-5.31104e-05 -9.31323e-10 -1.31709e-09 -7.45058e-09 -1.31709e-09 7.40387e-05 1.31709e-09 9.31323e-10 9.31323e-10 
-1.31709e-09 -9.31323e-10 5.65259e-10 -4.65661e-10 -1.31709e-09 -7.69399e-09 3.58816e-10 -9.31323e-10 -1.32222e-09 
7.5661e-09 -0 1.31709e-09 3.33643e-09 0 -1.00441e-09 1.69828e-09 0 -1.86265e-09 
9.31323e-10 9.31323e-10 -9.31323e-10 -0 1.04125e-09 1.39698e-09 -0 4.65661e-10 -0 
-0 0 9.31323e-10 9.59985e-10 -0 -4.65661e-10 7.22485e-10 2.32831e-10 1.39698e-09 
-0 -4.65661e-10 0 -0 0 3.75428e-09 -0 0 -1.31709e-09 
0 0 1.31709e-09 9.31323e-10 -0 -9.31323e-10 4.65661e-10 9.31323e-10 0 
1.04125e-09 1.04125e-09 9.31323e-10 -0 -9.31323e-10 -6.855e-05 7.95722e-09 0 -2.91038e-11 
2.0825e-09 -9.31323e-10 0 9.31323e-10 -1.04125e-09 -4.34856e-10 1.10374e-09 9.31323e-10 9.31323e-10 
-9.31323e-10 -4.65661e-10 9.31323e-10 -2.45898e-05 7.73615e-09 -7.46512e-09 0 1.31709e-09 -7.80591e-09 
0.000118929 0 -0 0 -9.31323e-10 -0 7.46512e-09 -8.46841e-05 0 
-0 -0 4.65661e-10 2.0825e-09 -1.31709e-09 1.42859e-06 -1.04125e-09 1.39698e-09 9.59985e-10 
0 0.000391725 0 -0 -4.65661e-10 0 0 4.59882e-06 1.86265e-09 
-7.46512e-09 7.5661e-09 0 3.75428e-09 0 -7.67988e-09 0 9.31323e-10 4.65661e-10 
9.31323e-10 0 1.31709e-09 9.31323e-10 -0 -4.65661e-10 -4.65661e-10 -3.72529e-09 9.31323e-10 
1.31709e-09 -9.31323e-10 0 9.31323e-10 0 -0 1.86265e-09 -7.50856e-09 1.09565e-09 
-4.65661e-10 -0 -0 0 4.65661e-10 0 3.40962e-10 -7.50856e-09 -9.31323e-10 
-0 0 0 1.04125e-09 -7.50856e-09 -9.31323e-10 -0 7.73615e-09 -3.86807e-09 
1.16415e-10 0 -9.31323e-10 -9.31323e-10 -1.39698e-09 -9.31323e-10 -4.65661e-10 9.31323e-10 -0 
3.31538e-06 -0.00113179 0.000121534 -5.82077e-11 -3.75428e-09 -0 1.04125e-09 0 1.86265e-09 
-0 -4.65661e-10 -7.45058e-09 -1.31709e-09 1.04125e-09 0 0.000361133 -9.31323e-10 9.31323e-10 
-1.86265e-09 4.65661e-10 0 -1.04125e-09 -4.65661e-10 -7.5661e-09 0 1.86265e-09 9.3857e-10 
2.0825e-09 0 0.000194861 4.27016e-05 1.86265e-09 5.2881e-10 5.54008e-10 -4.65661e-10 -0 
9.31323e-10 -1.04125e-09 3.72529e-09 0 0 -9.31323e-10 -9.31323e-10 0 7.45058e-09 
7.45058e-09 -2.0825e-09 -4.65661e-10 5.69959e-05 0 -0 6.98492e-10 1.04695e-05 1.31709e-09 
2.32831e-10 -0 1.16415e-09 -0.000162961 -0.000127469 0 0 8.16054e-05 -2.0825e-09 
7.45422e-09 1.91997e-09 -6.30452e-10 3.78305e-09 -9.31323e-10 0 0 -5.82077e-11 -4.65661e-10 
9.31323e-10 1.31709e-09 -0 -1.22258e-05 1.39698e-09 -1.23751e-09 5.21516e-05 1.97563e-09 -7.45058e-09 
0 -9.31323e-10 2.91038e-11 -7.5661e-09 0.000158633 2.79397e-09 7.45422e-09 -7.5661e-09 3.72529e-09 
0 8.01154e-09 -9.31323e-10 0 -4.65661e-10 -9.31323e-10 3.75428e-09 -6.98492e-10 0 
9.31323e-10 0 -1.04125e-09 1.04125e-09 -7.45058e-09 1.31709e-09 -0 -1.04125e-09 -9.31323e-10 
7.55983e-09 -0 0 -7.5661e-09 0.000179227 -0 -0 7.50856e-09 -0 
-7.50856e-09 -4.65661e-10 9.31323e-10 -1.31709e-09 -1.31709e-09 -3.83994e-09 -1.16415e-10 0 -7.73615e-09 
-1.31709e-09 -0 9.31323e-10 -4.65661e-10 7.52195e-05 -0 0 -0 -0 
7.45058e-09 1.86265e-09 4.65661e-10 -0 1.91997e-09 1.31709e-09 -0.00030166 -0 -0 
0.000355211 0 0 6.58544e-10 -0.000105397 9.31323e-10 -4.65661e-10 -4.65661e-10 4.65661e-10 
-3.78305e-09 -0 -1.16415e-10 7.50856e-09 0 -2.0825e-09 4.65661e-10 3.73259e-05 0.000151661 
-0 -6.66956e-05 -1.87714e-09 0 0 1.04125e-09 0 1.31709e-09 1.86265e-09 
0 9.31323e-10 -0 3.72529e-09 1.91997e-09 7.52299e-09 0 -0 0 
5.4913e-10 -4.65661e-10 3.8197e-10 -0 7.52299e-09 -0 1.04125e-09 1.47255e-09 -3.72529e-09 
1.31709e-09 7.59471e-09 -1.82081e-10 9.31323e-10 -4.65661e-10 9.31323e-10 -4.65661e-10 -6.58544e-10 -4.65661e-10 
0 1.04125e-09 9.31323e-10 0 -0.000118527 -7.50856e-09 -6.58544e-10 -0 4.65661e-10 
1.31709e-09 -2.61611e-09 -0 -0 4.65661e-10 -6.58544e-10 0.00038781 -2.32831e-10 0 
-9.31323e-10 -9.31323e-10 -4.65661e-10 0 7.69399e-09 -4.65661e-10 5.718e-10 -1.91997e-09 -5.20625e-10 
-1.91997e-09 4.21615e-05 -6.58544e-10 4.65661e-10 -0 5.20625e-10 4.65661e-10 9.31323e-10 -0 
-4.69285e-10 3.32859e-05 -2.39996e-10 -0.000282267 5.8477e-05 7.45058e-09 3.72529e-09 -1.31709e-09 3.72529e-09 
-1.16415e-10 -9.31323e-10 2.32831e-10 2.38236e-09 4.65661e-10 0 6.58544e-10 0 -0 
-1.30156e-10 5.20625e-10 -9.31323e-10 4.82852e-10 -4.65661e-10 0 -2.07382e-05 -3.9694e-10 7.363e-05 
4.65661e-10 -4.65661e-10 -4.65661e-10 0.000117038 -9.31323e-10 8.01154e-09 -0 -8.39483e-10 -1.40183e-09 
9.31323e-10 -6.58544e-10 -6.58544e-10 4.65661e-10 5.61523e-10 -1.86265e-09 -2.1332e-09 -1.29667e-09 -1.86265e-09 
9.31323e-10 5.01566e-10 7.12972e-05 0 -7.50856e-09 -2.32831e-10 -2.32831e-10 -5.82077e-11 -0 
3.87379e-06 -6.53479e-05 -0 -4.62582e-10 -6.58544e-10 -0 4.65661e-10 6.58544e-10 -6.58544e-10 
8.23434e-05 9.31323e-10 2.92294e-05 4.65661e-10 -0 -9.31323e-10 -0 -1.04125e-09 -1.86265e-09 
-7.45058e-09 -0 -2.32831e-10 -2.32831e-10 9.31323e-10 -4.94979e-10 -3.72529e-09 -0 6.10305e-05 
-0 -4.65661e-10 9.31323e-10 -7.69399e-09 0 -0 -5.82077e-11 9.3857e-10 -3.72529e-09 
2.32831e-10 0 -6.56266e-05 4.65661e-10 -4.78817e-05 -0 1.25383e-09 9.31323e-10 -1.04125e-09 
-1.86265e-09 0 -1.04125e-09 1.84643e-10 9.31323e-10 6.58544e-10 -5.39906e-11 -0 1.04125e-09 
-0 -0 6.33133e-05 -9.94653e-10 -9.3329e-05 0 -0 9.31323e-10 9.31323e-10 
-4.65661e-10 0 0 -5.16542e-10 -0.000107627 1.29468e-10 -0 -0 -0 
-7.46512e-09 -0 4.65661e-10 2.97159e-10 -1.3903e-09 0.000537492 0 0 -2.32831e-10 
1.87714e-09 -1.04125e-09 -2.02785e-10 2.32831e-10 1.98931e-09 -2.29312e-09 0 5.20625e-10 0 
2.79397e-09 -4.79993e-10 0 3.28587e-05 0 9.59985e-10 -1.86265e-09 3.43129e-10 -0 
-7.58399e-09 -1.41625e-09 -0 0 7.78888e-05 -2.32831e-10 6.58544e-10 -4.65661e-10 -9.31323e-10 
3.39406e-10 9.31323e-10 -3.76149e-09 0 2.32831e-10 0 0 2.56114e-09 -4.57012e-10 
-4.65661e-10 1.04125e-09 7.52299e-09 -2.83251e-09 1.98931e-09 -7.50856e-09 2.32831e-10 5.20625e-10 1.91997e-09 
3.4702e-05 -1.04125e-09 -2.32831e-10 0 -2.83251e-09 -9.59985e-10 -0 -1.91997e-09 0 
0 -2.32831e-10 -3.33264e-05 -0.00059218 0 0 0.000519038 1.75249e-05 -1.16415e-10 
-1.16415e-10 -0 -2.32831e-10 -3.84005e-09 7.34124e-05 -1.04125e-09 1.42284e-09 -1.97563e-09 1.44875e-09 
3.44361e-10 2.32831e-10 0 1.87714e-09 -0 -0 2.32831e-10 2.42728e-10 -5.20625e-10 
-0 2.32831e-10 -0 -0 -0 7.50947e-09 -9.59985e-10 1.14656e-09 -1.31709e-09 
4.65661e-10 0.000118261 4.79993e-10 0 -5.70316e-10 2.32831e-10 -7.51668e-09 7.06197e-05 4.65661e-10 
-7.80121e-05 6.13926e-05 7.50856e-09 -2.32831e-10 2.91038e-11 2.32831e-10 5.20625e-10 0 -2.32831e-10 
-9.31323e-10 -9.59985e-10 5.20625e-10 -0 3.25391e-11 0 0.000138762 -2.32831e-10 2.32831e-10 
-3.79021e-09 0 2.32831e-10 2.32831e-10 -6.78812e-10 -3.73395e-05 0 -1.16415e-10 4.65661e-10 
4.65661e-10 5.20625e-10 -6.58544e-10 -9.31323e-10 5.16181e-05 0 -9.59985e-10 -2.03311e-09 1.86628e-09 
1.87714e-09 -2.32831e-10 -0 5.41651e-05 7.4007e-05 1.80725e-09 -0.000121888 -1.16415e-10 5.20625e-10 
-0 0.000132496 3.72711e-09 4.65661e-10 8.91088e-05 4.88036e-05 1.47029e-10 -0.000378557 -2.32831e-10 
2.09069e-05 5.20625e-10 -0 -1.34383e-09 2.32831e-10 3.7254e-09 -2.19474e-09 1.04125e-09 5.82077e-11 
0 -5.20625e-10 2.32831e-10 -2.32831e-10 7.51668e-09 -9.59985e-10 2.32831e-10 0 -0 
-2.79556e-05 -0 0.000134283 -0 -0.000403396 2.38816e-05 -6.79594e-06 0 -4.65661e-10 
1.86265e-09 0 -3.29272e-10 0.000354652 -2.91038e-11 -2.32831e-10 -9.31323e-10 -1.86265e-09 -0 
0.000279316 1.54771e-05 0 -1.87749e-09 -2.60313e-10 -4.66736e-05 3.27418e-11 0 -1.16415e-10 
0 3.29272e-10 -0 -0 -2.32831e-10 -1.16415e-10 2.30086e-11 0 0 
-1.16415e-10 -0 0 6.09836e-11 -4.75171e-10 5.20625e-10 -9.3857e-10 -4.65661e-10 -0 
4.65661e-10 -7.45058e-09 4.65661e-10 -3.49246e-10 5.20625e-10 -0.000269714 2.39996e-10 -9.3314e-10 -3.7835e-10 
0.000190295 -5.82077e-11 4.54209e-10 -1.30805e-09 1.01915e-09 -3.72529e-09 3.72532e-09 9.3857e-10 -1.93404e-09 
0.000224203 -2.60313e-10 1.45519e-11 1.16415e-10 0 1.16415e-10 1.16415e-09 4.36557e-11 0 
-6.8867e-05 1.9419e-09 0.000158871 0 9.59985e-10 -8.73115e-11 -0 5.82077e-10 1.16415e-10 
7.08127e-10 -1.14147e-09 -1.16415e-10 -1.64636e-09 -1.35762e-09 -1.16415e-10 0 -9.31323e-10 -0.000187378 
9.3857e-10 0 -1.86628e-09 0 -1.86628e-09 -5.82077e-10 -0 0 -0 
0.000335011 -3.29272e-10 2.32831e-10 3.75428e-09 2.32831e-10 -7.8629e-06 -0 -2.45564e-11 3.63798e-11 
0 -1.24332e-10 -9.36114e-10 -4.98203e-05 -9.59985e-10 1.87588e-10 -1.16415e-10 -2.09871e-10 2.91038e-10 
-1.74623e-10 -1.16415e-10 1.74623e-10 -0 -1.16415e-10 1.16415e-10 -0 4.65661e-10 1.55074e-10 
1.25224e-05 2.91038e-11 1.16415e-10 2.91038e-11 9.3314e-10 4.92406e-10 -5.82077e-11 -9.31323e-10 -0.000135353 
6.74766e-05 3.99942e-09 -4.79993e-10 -6.95097e-05 0 0.000754167 -2.60313e-10 -0 1.16415e-10 
1.16415e-10 -1.67347e-10 0 6.29763e-05 -1.16415e-10 5.82077e-11 3.70998e-05 -1.10958e-10 5.82077e-11 
-3.72529e-09 -4.65661e-10 2.32831e-10 3.8479e-09 -5.8633e-05 1.16415e-10 3.72575e-09 5.82077e-11 4.84673e-05 
9.31323e-10 0.000190023 -1.86407e-09 -2.60313e-10 1.86355e-09 2.96681e-05 -1.09826e-09 -1.16415e-10 -2.0825e-09 
-8.2639e-11 -5.82077e-11 5.82077e-11 1.86355e-09 -5.82077e-11 -1.64636e-10 -0 -1.16415e-10 -6.38103e-05 
-2.32831e-10 1.42698e-09 7.49501e-09 -7.51217e-09 7.52299e-09 2.91038e-11 -2.39996e-10 6.07161e-05 -9.50212e-05 
-1.04288e-09 -4.69285e-10 6.5226e-05 -1.50573e-10 -1.86628e-09 9.3857e-10 -0 9.31323e-10 -1.74623e-10 
-9.75738e-10 4.79993e-10 -4.65661e-10 0 6.7081e-11 1.74623e-10 2.48663e-10 1.45519e-11 -1.62981e-09 
5.82077e-10 -1.23751e-09 -9.31323e-10 9.33594e-10 -4.66162e-10 -1.86323e-09 0.00011223 -4.6657e-10 -4.46356e-05 
9.02716e-05 -1.16415e-10 -2.33086e-10 -2.97352e-05 2.7029e-10 -4.73776e-10 2.32831e-09 5.82077e-11 1.13505e-09 
1.69765e-09 -1.30156e-10 -8.76141e-11 4.61224e-05 1.87714e-09 1.8627e-09 -1.87223e-09 -1.81899e-10 0 
-1.49084e-09 -0 5.09317e-11 -8.43087e-11 -4.73776e-10 -1.0733e-09 5.82077e-11 6.55039e-05 -5.82077e-11 
-1.8951e-09 -6.58544e-10 4.65661e-10 -9.3857e-10 -2.32831e-10 -7.52299e-09 1.87714e-09 -0 -2.39996e-10 
1.30156e-10 1.18234e-11 -9.3314e-10 -9.59985e-10 -1.16415e-10 0 0 7.45422e-10 -3.72529e-09 
1.16415e-10 1.86469e-09 0 -5.82077e-11 -2.09175e-09 0 1.16415e-10 -9.3857e-10 4.79993e-10 
6.86412e-11 5.82077e-11 3.49246e-10 -4.65661e-10 -1.16415e-10 -4.79993e-10 -5.82077e-10 0 2.60313e-10 
-0 0 -2.39996e-10 4.69285e-10 -1.16415e-10 -0 -3.72711e-10 -0 -4.79993e-10 